REMARK  Name = 
REMARK  5 active torsions:
REMARK  status: ('A' for Active; 'I' for Inactive)
REMARK    1  A    between atoms: C_1  and  C_2
REMARK    2  A    between atoms: C_2  and  O_4
REMARK    3  A    between atoms: O_4  and  C_5
REMARK    4  A    between atoms: C_10  and  C_11
REMARK    5  A    between atoms: C_11  and  O_13
REMARK                            x       y       z     vdW  Elec       q    Type
REMARK                         _______ _______ _______ _____ _____    ______ ____
ROOT
ATOM      1  C   UNL     1      -0.112   0.338  -0.561  1.00  0.00    +0.000 A 
ATOM      2  C   UNL     1      -0.463   1.587  -1.084  1.00  0.00    +0.000 A 
ATOM      3  C   UNL     1       0.380   2.679  -0.888  1.00  0.00    +0.000 A 
ATOM      4  C   UNL     1       1.573   2.519  -0.183  1.00  0.00    +0.000 A 
ATOM      5  C   UNL     1       1.931   1.265   0.322  1.00  0.00    +0.000 A 
ATOM      6  C   UNL     1       1.093   0.154   0.132  1.00  0.00    +0.000 A 
ENDROOT
BRANCH   6   7
ATOM      7  C   UNL     1       1.481  -1.188   0.641  1.00  0.00    +0.000 C 
ATOM      8  O   UNL     1       0.887  -2.237   0.473  1.00  0.00    +0.000 OA
BRANCH   7   9
ATOM      9  O   UNL     1       2.625  -1.160   1.351  1.00  0.00    +0.000 OA
ATOM     10  H   UNL     1       2.747  -2.091   1.633  1.00  0.00    +0.000 HD
ENDBRANCH   7   9
ENDBRANCH   6   7
BRANCH   1  11
ATOM     11  O   UNL     1      -0.987  -0.721  -0.819  1.00  0.00    +0.000 OA
BRANCH  11  13
ATOM     12  C   UNL     1      -2.654  -2.201  -0.070  1.00  0.00    +0.000 C 
ATOM     13  C   UNL     1      -1.825  -0.995   0.256  1.00  0.00    +0.000 C 
ATOM     14  O   UNL     1      -1.908  -0.360   1.299  1.00  0.00    +0.000 OA
ENDBRANCH  11  13
ENDBRANCH   1  11
TORSDOF 4
