REMARK  Name = 
REMARK  17 active torsions:
REMARK  status: ('A' for Active; 'I' for Inactive)
REMARK    1  A    between atoms: C_1  and  C_2
REMARK    2  A    between atoms: C_2  and  C_3
REMARK    3  A    between atoms: C_2  and  C_4
REMARK    4  A    between atoms: C_5  and  C_6
REMARK    5  A    between atoms: N_8  and  C_9
REMARK    6  A    between atoms: C_15  and  C_16
REMARK    7  A    between atoms: C_22  and  C_23
REMARK    8  A    between atoms: N_30  and  C_31
REMARK    9  A    between atoms: C_31  and  C_32
REMARK   10  A    between atoms: C_32  and  C_33
REMARK   11  A    between atoms: C_33  and  O_34
REMARK   12  A    between atoms: C_33  and  C_35
REMARK   13  A    between atoms: C_35  and  C_36
REMARK   14  A    between atoms: C_36  and  O_37
REMARK   15  A    between atoms: C_36  and  C_38
REMARK   16  A    between atoms: C_38  and  C_39
REMARK   17  A    between atoms: C_39  and  O_41
REMARK                            x       y       z     vdW  Elec       q    Type
REMARK                         _______ _______ _______ _____ _____    ______ ____
ROOT
ATOM      1  C   UNL     1      -0.485   0.202  -1.662  1.00  0.00    +0.000 A 
ATOM      2  C   UNL     1      -1.682  -0.003  -0.956  1.00  0.00    +0.000 A 
ATOM      3  C   UNL     1      -1.447  -1.049  -0.012  1.00  0.00    +0.000 A 
ATOM      4  C   UNL     1      -0.135  -1.471  -0.153  1.00  0.00    +0.000 A 
ATOM      5  N   UNL     1       0.466  -0.660  -1.117  1.00  0.00    +0.000 N 
ENDROOT
BRANCH   4   6
ATOM      6  C   UNL     1       0.525  -2.602   0.508  1.00  0.00    +0.000 A 
ATOM      7  C   UNL     1       0.592  -3.844  -0.139  1.00  0.00    +0.000 A 
ATOM      8  C   UNL     1       1.207  -4.930   0.485  1.00  0.00    +0.000 A 
ATOM      9  C   UNL     1       1.747  -4.773   1.756  1.00  0.00    +0.000 A 
ATOM     10  F   UNL     1       2.338  -5.815   2.355  1.00  0.00    +0.000 F 
ATOM     11  C   UNL     1       1.680  -3.552   2.417  1.00  0.00    +0.000 A 
ATOM     12  C   UNL     1       1.063  -2.465   1.794  1.00  0.00    +0.000 A 
ENDBRANCH   4   6
BRANCH   3  13
ATOM     13  C   UNL     1      -2.404  -1.708   0.866  1.00  0.00    +0.000 A 
ATOM     14  C   UNL     1      -3.445  -2.465   0.318  1.00  0.00    +0.000 A 
ATOM     15  C   UNL     1      -4.386  -3.070   1.152  1.00  0.00    +0.000 A 
ATOM     16  C   UNL     1      -4.293  -2.919   2.535  1.00  0.00    +0.000 A 
ATOM     17  C   UNL     1      -3.261  -2.161   3.087  1.00  0.00    +0.000 A 
ATOM     18  C   UNL     1      -2.319  -1.552   2.255  1.00  0.00    +0.000 A 
ENDBRANCH   3  13
BRANCH   2  19
ATOM     19  C   UNL     1      -2.951   0.719  -1.185  1.00  0.00    +0.000 C 
ATOM     20  O   UNL     1      -3.339   0.988  -2.315  1.00  0.00    +0.000 OA
ATOM     21  N   UNL     1      -3.599   1.055  -0.011  1.00  0.00    +0.000 N 
ATOM     22  H   UNL     1      -3.140   0.772   0.843  1.00  0.00    +0.000 HD
BRANCH  21  23
ATOM     23  C   UNL     1      -4.826   1.728   0.145  1.00  0.00    +0.000 A 
ATOM     24  C   UNL     1      -5.281   1.921   1.456  1.00  0.00    +0.000 A 
ATOM     25  C   UNL     1      -6.487   2.582   1.704  1.00  0.00    +0.000 A 
ATOM     26  C   UNL     1      -7.252   3.054   0.641  1.00  0.00    +0.000 A 
ATOM     27  C   UNL     1      -6.809   2.865  -0.666  1.00  0.00    +0.000 A 
ATOM     28  C   UNL     1      -5.600   2.205  -0.913  1.00  0.00    +0.000 A 
ENDBRANCH  21  23
ENDBRANCH   2  19
BRANCH   1  30
ATOM     29  C   UNL     1      -0.045   2.622  -2.233  1.00  0.00    +0.000 C 
ATOM     30  C   UNL     1      -0.296   1.218  -2.788  1.00  0.00    +0.000 C 
ATOM     31  C   UNL     1       0.684   0.862  -3.898  1.00  0.00    +0.000 C 
ENDBRANCH   1  30
BRANCH   5  32
ATOM     32  C   UNL     1       1.868  -0.798  -1.501  1.00  0.00    +0.000 C 
BRANCH  32  33
ATOM     33  C   UNL     1       2.791   0.342  -1.060  1.00  0.00    +0.000 C 
BRANCH  33  34
ATOM     34  C   UNL     1       2.945   0.486   0.455  1.00  0.00    +0.000 C 
BRANCH  34  35
ATOM     35  O   UNL     1       3.744  -0.573   0.980  1.00  0.00    +0.000 OA
ATOM     36  H   UNL     1       3.277  -1.413   0.830  1.00  0.00    +0.000 HD
ENDBRANCH  34  35
BRANCH  34  37
ATOM     37  C   UNL     1       3.562   1.826   0.895  1.00  0.00    +0.000 C 
BRANCH  37  38
ATOM     38  C   UNL     1       4.922   2.231   0.302  1.00  0.00    +0.000 C 
BRANCH  38  39
ATOM     39  O   UNL     1       4.750   2.542  -1.083  1.00  0.00    +0.000 OA
ATOM     40  H   UNL     1       5.581   2.964  -1.380  1.00  0.00    +0.000 HD
ENDBRANCH  38  39
BRANCH  38  41
ATOM     41  C   UNL     1       6.022   1.185   0.480  1.00  0.00    +0.000 C 
BRANCH  41  42
ATOM     42  C   UNL     1       7.367   1.793   0.204  1.00  0.00    +0.000 C 
ATOM     43  O   UNL     1       7.590   2.782  -0.476  1.00  0.00    +0.000 OA
BRANCH  42  44
ATOM     44  O   UNL     1       8.377   1.103   0.767  1.00  0.00    +0.000 OA
ATOM     45  H   UNL     1       9.187   1.580   0.494  1.00  0.00    +0.000 HD
ENDBRANCH  42  44
ENDBRANCH  41  42
ENDBRANCH  38  41
ENDBRANCH  37  38
ENDBRANCH  34  37
ENDBRANCH  33  34
ENDBRANCH  32  33
ENDBRANCH   5  32
TORSDOF 15
