REMARK  Name = 
REMARK  3 active torsions:
REMARK  status: ('A' for Active; 'I' for Inactive)
REMARK    1  A    between atoms: C_1  and  N_2
REMARK    2  A    between atoms: N_9  and  C_14
REMARK    3  A    between atoms: N_12  and  C_13
REMARK                            x       y       z     vdW  Elec       q    Type
REMARK                         _______ _______ _______ _____ _____    ______ ____
ROOT
ATOM      1  C   UNL     1       3.279   0.594   0.074  1.00  0.00    +0.000 C 
ATOM      2  N   UNL     1       2.141  -0.286  -0.003  1.00  0.00    +0.000 N 
ATOM      3  C   UNL     1       2.180  -1.652  -0.106  1.00  0.00    +0.000 A 
ATOM      4  N   UNL     1       0.969  -2.171  -0.157  1.00  0.00    +0.000 NA
ATOM      5  C   UNL     1       0.136  -1.095  -0.082  1.00  0.00    +0.000 A 
ATOM      6  C   UNL     1       0.824   0.076   0.013  1.00  0.00    +0.000 A 
ATOM      7  C   UNL     1       0.193   1.346   0.104  1.00  0.00    +0.000 A 
ATOM      8  O   UNL     1       0.823   2.396   0.189  1.00  0.00    +0.000 OA
ATOM      9  N   UNL     1      -1.202   1.258   0.085  1.00  0.00    +0.000 N 
ATOM     10  C   UNL     1      -1.951   0.067  -0.012  1.00  0.00    +0.000 A 
ATOM     11  O   UNL     1      -3.185   0.092  -0.021  1.00  0.00    +0.000 OA
ATOM     12  N   UNL     1      -1.237  -1.129  -0.097  1.00  0.00    +0.000 N 
ATOM     13  C   UNL     1      -1.932  -2.400  -0.199  1.00  0.00    +0.000 C 
ATOM     14  C   UNL     1      -1.965   2.488   0.172  1.00  0.00    +0.000 C 
ENDROOT
TORSDOF 0
