REMARK  Name = 
REMARK  9 active torsions:
REMARK  status: ('A' for Active; 'I' for Inactive)
REMARK    1  A    between atoms: O_1  and  C_2
REMARK    2  A    between atoms: C_2  and  C_4
REMARK    3  A    between atoms: C_4  and  O_5
REMARK    4  A    between atoms: O_5  and  C_6
REMARK    5  A    between atoms: C_6  and  C_7
REMARK    6  A    between atoms: C_7  and  N_8
REMARK    7  A    between atoms: N_11  and  C_14
REMARK    8  A    between atoms: C_14  and  C_15
REMARK    9  A    between atoms: C_14  and  C_21
REMARK                            x       y       z     vdW  Elec       q    Type
REMARK                         _______ _______ _______ _____ _____    ______ ____
ROOT
ATOM      1  N   UNL     1       1.903  -1.101   0.267  1.00  0.00    +0.000 NA
ATOM      2  C   UNL     1       1.384   0.282   0.178  1.00  0.00    +0.000 C 
ATOM      3  C   UNL     1      -0.149   0.431   0.396  1.00  0.00    +0.000 C 
ATOM      4  N   UNL     1      -0.873  -0.774  -0.005  1.00  0.00    +0.000 NA
ATOM      5  C   UNL     1      -0.417  -1.944   0.763  1.00  0.00    +0.000 C 
ATOM      6  C   UNL     1       1.076  -1.891   1.191  1.00  0.00    +0.000 C 
ENDROOT
BRANCH   1   7
ATOM      7  C   UNL     1       3.322  -1.143   0.646  1.00  0.00    +0.000 C 
BRANCH   7   8
ATOM      8  C   UNL     1       4.259  -0.524  -0.403  1.00  0.00    +0.000 C 
BRANCH   8   9
ATOM      9  O   UNL     1       5.612  -0.677   0.042  1.00  0.00    +0.000 OA
BRANCH   9  10
ATOM     10  C   UNL     1       6.553  -0.146  -0.881  1.00  0.00    +0.000 C 
BRANCH  10  11
ATOM     11  C   UNL     1       6.663   1.376  -0.930  1.00  0.00    +0.000 C 
ATOM     12  O   UNL     1       6.024   2.193  -0.287  1.00  0.00    +0.000 OA
BRANCH  11  13
ATOM     13  O   UNL     1       7.592   1.790  -1.818  1.00  0.00    +0.000 OA
ATOM     14  H   UNL     1       7.565   2.768  -1.749  1.00  0.00    +0.000 HD
ENDBRANCH  11  13
ENDBRANCH  10  11
ENDBRANCH   9  10
ENDBRANCH   8   9
ENDBRANCH   7   8
ENDBRANCH   1   7
BRANCH   4  15
ATOM     15  C   UNL     1      -2.341  -0.668  -0.130  1.00  0.00    +0.000 C 
BRANCH  15  16
ATOM     16  C   UNL     1      -2.793   0.044  -1.425  1.00  0.00    +0.000 A 
ATOM     17  C   UNL     1      -4.133   0.450  -1.595  1.00  0.00    +0.000 A 
ATOM     18  C   UNL     1      -4.562   1.056  -2.780  1.00  0.00    +0.000 A 
ATOM     19  C   UNL     1      -3.665   1.242  -3.826  1.00  0.00    +0.000 A 
ATOM     20 CL   UNL     1      -4.193   1.986  -5.285  1.00  0.00    +0.000 Cl
ATOM     21  C   UNL     1      -2.347   0.818  -3.703  1.00  0.00    +0.000 A 
ATOM     22  C   UNL     1      -1.919   0.213  -2.516  1.00  0.00    +0.000 A 
ENDBRANCH  15  16
BRANCH  15  23
ATOM     23  C   UNL     1      -3.038  -0.175   1.146  1.00  0.00    +0.000 A 
ATOM     24  C   UNL     1      -3.103   1.190   1.481  1.00  0.00    +0.000 A 
ATOM     25  C   UNL     1      -3.742   1.613   2.648  1.00  0.00    +0.000 A 
ATOM     26  C   UNL     1      -4.328   0.680   3.500  1.00  0.00    +0.000 A 
ATOM     27  C   UNL     1      -4.277  -0.675   3.186  1.00  0.00    +0.000 A 
ATOM     28  C   UNL     1      -3.639  -1.100   2.018  1.00  0.00    +0.000 A 
ENDBRANCH  15  23
ENDBRANCH   4  15
TORSDOF 9
