REMARK  Name = 
REMARK  4 active torsions:
REMARK  status: ('A' for Active; 'I' for Inactive)
REMARK    1  A    between atoms: O_1  and  C_2
REMARK    2  A    between atoms: C_2  and  C_4
REMARK    3  A    between atoms: N_6  and  C_7
REMARK    4  A    between atoms: C_12  and  N_13
REMARK                            x       y       z     vdW  Elec       q    Type
REMARK                         _______ _______ _______ _____ _____    ______ ____
ROOT
ATOM      1  C   UNL     1      -3.814   1.534  -0.248  1.00  0.00    +0.000 A 
ATOM      2  C   UNL     1      -3.543   0.243  -0.490  1.00  0.00    +0.000 A 
ATOM      3  N   UNL     1      -2.321  -0.381  -0.311  1.00  0.00    +0.000 N 
ATOM      4  C   UNL     1      -1.182   0.409   0.021  1.00  0.00    +0.000 A 
ATOM      5  C   UNL     1       0.124  -0.119   0.061  1.00  0.00    +0.000 A 
ATOM      6  C   UNL     1       1.249   0.661   0.395  1.00  0.00    +0.000 A 
ATOM      7  C   UNL     1       1.006   2.013   0.713  1.00  0.00    +0.000 A 
ATOM      8  F   UNL     1       2.017   2.810   1.094  1.00  0.00    +0.000 F 
ATOM      9  C   UNL     1      -0.268   2.570   0.677  1.00  0.00    +0.000 A 
ATOM     10  C   UNL     1      -1.355   1.772   0.324  1.00  0.00    +0.000 A 
ATOM     11  C   UNL     1      -2.712   2.375   0.276  1.00  0.00    +0.000 A 
ATOM     12  O   UNL     1      -2.884   3.519   0.680  1.00  0.00    +0.000 OA
ENDROOT
BRANCH   6  13
ATOM     13  N   UNL     1       2.550   0.130   0.450  1.00  0.00    +0.000 N 
ATOM     14  C   UNL     1       3.521   0.805  -0.448  1.00  0.00    +0.000 C 
ATOM     15  C   UNL     1       4.967   0.383  -0.100  1.00  0.00    +0.000 C 
ATOM     16  N   UNL     1       5.173  -1.079  -0.102  1.00  0.00    +0.000 NA
ATOM     17  C   UNL     1       4.192  -1.700   0.808  1.00  0.00    +0.000 C 
ATOM     18  C   UNL     1       2.729  -1.337   0.466  1.00  0.00    +0.000 C 
ATOM     19  H   UNL     1       6.113  -1.279   0.239  1.00  0.00    +0.000 HD
ENDBRANCH   6  13
BRANCH   3  20
ATOM     20  C   UNL     1      -2.202  -1.801  -0.690  1.00  0.00    +0.000 C 
ATOM     21  C   UNL     1      -3.192  -2.844  -0.226  1.00  0.00    +0.000 C 
ATOM     22  C   UNL     1      -1.797  -2.855   0.311  1.00  0.00    +0.000 C 
ENDBRANCH   3  20
BRANCH   1  23
ATOM     23  C   UNL     1      -5.177   2.005  -0.519  1.00  0.00    +0.000 C 
ATOM     24  O   UNL     1      -6.180   1.310  -0.528  1.00  0.00    +0.000 OA
BRANCH  23  25
ATOM     25  O   UNL     1      -5.238   3.305  -0.842  1.00  0.00    +0.000 OA
ATOM     26  H   UNL     1      -6.189   3.490  -0.977  1.00  0.00    +0.000 HD
ENDBRANCH  23  25
ENDBRANCH   1  23
TORSDOF 4
