REMARK  Name = 
REMARK  2 active torsions:
REMARK  status: ('A' for Active; 'I' for Inactive)
REMARK    1  A    between atoms: C_1  and  N_2
REMARK    2  A    between atoms: C_10  and  C_15
REMARK                            x       y       z     vdW  Elec       q    Type
REMARK                         _______ _______ _______ _____ _____    ______ ____
ROOT
ATOM      1  C   UNL     1      -3.454  -0.660  -1.337  1.00  0.00    +0.000 C 
ATOM      2  N   UNL     1      -2.300  -0.924  -0.489  1.00  0.00    +0.000 N 
ATOM      3  C   UNL     1      -1.773   0.130   0.322  1.00  0.00    +0.000 A 
ATOM      4  C   UNL     1      -2.634   1.159   0.752  1.00  0.00    +0.000 A 
ATOM      5  C   UNL     1      -2.185   2.184   1.591  1.00  0.00    +0.000 A 
ATOM      6  C   UNL     1      -0.863   2.202   2.014  1.00  0.00    +0.000 A 
ATOM      7 CL   UNL     1      -0.314   3.452   3.057  1.00  0.00    +0.000 Cl
ATOM      8  C   UNL     1       0.019   1.218   1.586  1.00  0.00    +0.000 A 
ATOM      9  C   UNL     1      -0.423   0.199   0.720  1.00  0.00    +0.000 A 
ATOM     10  C   UNL     1       0.611  -0.746   0.205  1.00  0.00    +0.000 C 
ATOM     11  N   UNL     1       0.469  -2.028   0.181  1.00  0.00    +0.000 NA
ATOM     12  C   UNL     1      -0.805  -2.583   0.627  1.00  0.00    +0.000 C 
ATOM     13  C   UNL     1      -1.882  -2.258  -0.399  1.00  0.00    +0.000 C 
ATOM     14  O   UNL     1      -2.403  -3.159  -1.064  1.00  0.00    +0.000 OA
ENDROOT
BRANCH  10  15
ATOM     15  C   UNL     1       1.902  -0.190  -0.314  1.00  0.00    +0.000 A 
ATOM     16  C   UNL     1       3.083  -0.914  -0.113  1.00  0.00    +0.000 A 
ATOM     17  C   UNL     1       4.299  -0.418  -0.586  1.00  0.00    +0.000 A 
ATOM     18  C   UNL     1       4.337   0.796  -1.271  1.00  0.00    +0.000 A 
ATOM     19  C   UNL     1       3.161   1.512  -1.491  1.00  0.00    +0.000 A 
ATOM     20  C   UNL     1       1.942   1.020  -1.019  1.00  0.00    +0.000 A 
ENDBRANCH  10  15
TORSDOF 1
