REMARK  Name = 
REMARK  8 active torsions:
REMARK  status: ('A' for Active; 'I' for Inactive)
REMARK    1  A    between atoms: C_1  and  C_2
REMARK    2  A    between atoms: C_2  and  C_3
REMARK    3  A    between atoms: C_2  and  C_4
REMARK    4  A    between atoms: C_4  and  C_5
REMARK    5  A    between atoms: C_8  and  C_11
REMARK    6  A    between atoms: C_11  and  C_12
REMARK    7  A    between atoms: C_11  and  C_13
REMARK    8  A    between atoms: C_13  and  O_15
REMARK                            x       y       z     vdW  Elec       q    Type
REMARK                         _______ _______ _______ _____ _____    ______ ____
ROOT
ATOM      1  C   UNL     1      -0.858  -0.704   0.219  1.00  0.00    +0.000 A 
ATOM      2  C   UNL     1      -0.060  -0.148   1.224  1.00  0.00    +0.000 A 
ATOM      3  C   UNL     1       1.284   0.149   0.983  1.00  0.00    +0.000 A 
ATOM      4  C   UNL     1       1.863  -0.106  -0.268  1.00  0.00    +0.000 A 
ATOM      5  C   UNL     1       1.059  -0.667  -1.272  1.00  0.00    +0.000 A 
ATOM      6  C   UNL     1      -0.285  -0.962  -1.032  1.00  0.00    +0.000 A 
ENDROOT
BRANCH   4   7
ATOM      7  C   UNL     1       3.320   0.219  -0.559  1.00  0.00    +0.000 C 
ATOM      8  C   UNL     1       3.613   1.711  -0.398  1.00  0.00    +0.000 C 
BRANCH   7   9
ATOM      9  C   UNL     1       4.297  -0.579   0.287  1.00  0.00    +0.000 C 
ATOM     10  O   UNL     1       4.151  -0.989   1.427  1.00  0.00    +0.000 OA
BRANCH   9  11
ATOM     11  O   UNL     1       5.472  -0.786  -0.349  1.00  0.00    +0.000 OA
ATOM     12  H   UNL     1       6.001  -1.292   0.304  1.00  0.00    +0.000 HD
ENDBRANCH   9  11
ENDBRANCH   7   9
ENDBRANCH   4   7
BRANCH   1  13
ATOM     13  C   UNL     1      -2.312  -1.022   0.477  1.00  0.00    +0.000 C 
BRANCH  13  15
ATOM     14  C   UNL     1      -4.722  -0.594  -0.089  1.00  0.00    +0.000 C 
ATOM     15  C   UNL     1      -3.293  -0.064  -0.227  1.00  0.00    +0.000 C 
ATOM     16  C   UNL     1      -3.213   1.357   0.338  1.00  0.00    +0.000 C 
ENDBRANCH  13  15
ENDBRANCH   1  13
TORSDOF 5
