REMARK  Name = 
REMARK  3 active torsions:
REMARK  status: ('A' for Active; 'I' for Inactive)
REMARK    1  A    between atoms: N_1  and  CA_2
REMARK    2  A    between atoms: CA_2  and  C_3
REMARK    3  A    between atoms: C_3  and  OXT_5
REMARK                            x       y       z     vdW  Elec       q    Type
REMARK                         _______ _______ _______ _____ _____    ______ ____
ROOT
ATOM      1  CA  GLY A   1      -0.535  -0.560  -0.090  1.00  0.00    +0.000 C 
ENDROOT
BRANCH   1   2
ATOM      2  N   GLY A   1      -1.620   0.409   0.152  1.00  0.00    +0.000 NA
ATOM      3  H1  GLY A   1      -1.450   0.854   1.057  1.00  0.00    +0.000 HD
ATOM      4  H2  GLY A   1      -1.518   1.173  -0.519  1.00  0.00    +0.000 HD
ENDBRANCH   1   2
BRANCH   1   5
ATOM      5  C   GLY A   1       0.828   0.113  -0.013  1.00  0.00    +0.000 C 
ATOM      6  O   GLY A   1       1.048   1.292   0.217  1.00  0.00    +0.000 OA
BRANCH   5   7
ATOM      7  OXT GLY A   1       1.843  -0.746  -0.230  1.00  0.00    +0.000 OA
ATOM      8  HXT GLY A   1       2.648  -0.191  -0.152  1.00  0.00    +0.000 HD
ENDBRANCH   5   7
ENDBRANCH   1   5
TORSDOF 3
