REMARK  Name = 
REMARK  2 active torsions:
REMARK  status: ('A' for Active; 'I' for Inactive)
REMARK    1  A    between atoms: C_1  and  N_2
REMARK    2  A    between atoms: N_2  and  C_3
REMARK                            x       y       z     vdW  Elec       q    Type
REMARK                         _______ _______ _______ _____ _____    ______ ____
ROOT
ATOM      1  C   UNL     1      -1.741  -1.253   0.761  1.00  0.00    +0.000 C 
ATOM      2  N   UNL     1      -1.291  -0.267  -0.230  1.00  0.00    +0.000 N 
ATOM      3  C   UNL     1      -2.427   0.452  -0.827  1.00  0.00    +0.000 C 
ATOM      4  C   UNL     1      -0.201   0.507   0.116  1.00  0.00    +0.000 C 
ATOM      5  N   UNL     1      -0.327   1.738   0.486  1.00  0.00    +0.000 NA
ATOM      6  N   UNL     1       0.980  -0.166   0.010  1.00  0.00    +0.000 N 
ATOM      7  C   UNL     1       2.283   0.198  -0.050  1.00  0.00    +0.000 C 
ATOM      8  N   UNL     1       2.767   1.369  -0.276  1.00  0.00    +0.000 NA
ATOM      9  N   UNL     1       3.158  -0.814   0.154  1.00  0.00    +0.000 N 
ATOM     10  H   UNL     1       0.591   2.084   0.779  1.00  0.00    +0.000 HD
ATOM     11  H   UNL     1       0.834  -1.157  -0.088  1.00  0.00    +0.000 HD
ATOM     12  H   UNL     1       1.996   2.009  -0.492  1.00  0.00    +0.000 HD
ATOM     13  H   UNL     1       4.101  -0.448   0.038  1.00  0.00    +0.000 HD
ATOM     14  H   UNL     1       3.032  -1.603  -0.466  1.00  0.00    +0.000 HD
ENDROOT
TORSDOF 0
