REMARK  Name = 
REMARK  3 active torsions:
REMARK  status: ('A' for Active; 'I' for Inactive)
REMARK    1  A    between atoms: C_1  and  N_2
REMARK    2  A    between atoms: C_10  and  O_11
REMARK    3  A    between atoms: C_15  and  O_16
REMARK                            x       y       z     vdW  Elec       q    Type
REMARK                         _______ _______ _______ _____ _____    ______ ____
ROOT
ATOM      1  C   UNL     1       0.950   3.721  -0.042  1.00  0.00    +0.000 C 
ATOM      2  N   UNL     1      -0.031   2.651  -0.016  1.00  0.00    +0.000 NA
ATOM      3  C   UNL     1      -0.353   2.173   1.323  1.00  0.00    +0.000 C 
ATOM      4  C   UNL     1       0.014   0.714   1.602  1.00  0.00    +0.000 C 
ATOM      5  C   UNL     1      -0.384  -0.259   0.460  1.00  0.00    +0.000 C 
ATOM      6  C   UNL     1       0.819  -0.965  -0.035  1.00  0.00    +0.000 A 
ATOM      7  C   UNL     1       1.790  -0.382  -0.834  1.00  0.00    +0.000 A 
ATOM      8  C   UNL     1       2.845  -1.199  -1.240  1.00  0.00    +0.000 A 
ATOM      9  C   UNL     1       2.852  -2.568  -0.893  1.00  0.00    +0.000 A 
ATOM     10  C   UNL     1       1.790  -3.125  -0.175  1.00  0.00    +0.000 A 
ATOM     11  C   UNL     1       0.763  -2.307   0.236  1.00  0.00    +0.000 A 
ATOM     12  O   UNL     1      -0.404  -2.698   0.833  1.00  0.00    +0.000 OA
ATOM     13  C   UNL     1      -1.207  -1.468   0.964  1.00  0.00    +0.000 C 
ATOM     14  C   UNL     1      -2.575  -1.609   0.243  1.00  0.00    +0.000 C 
ATOM     15  C   UNL     1      -3.157  -0.287  -0.202  1.00  0.00    +0.000 C 
ATOM     16  C   UNL     1      -2.376   0.703  -0.671  1.00  0.00    +0.000 C 
ATOM     17  C   UNL     1      -0.898   0.449  -0.802  1.00  0.00    +0.000 C 
ATOM     18  C   UNL     1       0.100   1.621  -1.061  1.00  0.00    +0.000 C 
ATOM     19  C   UNL     1       1.572   1.045  -1.292  1.00  0.00    +0.000 C 
ENDROOT
BRANCH  10  20
ATOM     20  O   UNL     1       1.774  -4.462   0.079  1.00  0.00    +0.000 OA
ATOM     21  H   UNL     1       0.938  -4.631   0.553  1.00  0.00    +0.000 HD
ENDBRANCH  10  20
BRANCH  14  22
ATOM     22  O   UNL     1      -3.524  -2.225   1.119  1.00  0.00    +0.000 OA
ATOM     23  H   UNL     1      -3.678  -1.619   1.862  1.00  0.00    +0.000 HD
ENDBRANCH  14  22
TORSDOF 2
