REMARK  Name = 
REMARK  6 active torsions:
REMARK  status: ('A' for Active; 'I' for Inactive)
REMARK    1  A    between atoms: C_1  and  O_2
REMARK    2  A    between atoms: O_2  and  C_3
REMARK    3  A    between atoms: C_8  and  C_13
REMARK    4  A    between atoms: C_13  and  C_14
REMARK    5  A    between atoms: C_13  and  C_15
REMARK    6  A    between atoms: C_15  and  O_17
REMARK                            x       y       z     vdW  Elec       q    Type
REMARK                         _______ _______ _______ _____ _____    ______ ____
ROOT
ATOM      1  C   UNL     1      -3.340   0.140   0.009  1.00  0.00    +0.000 A 
ATOM      2  C   UNL     1      -2.967   0.213  -1.330  1.00  0.00    +0.000 A 
ATOM      3  C   UNL     1      -1.614   0.165  -1.686  1.00  0.00    +0.000 A 
ATOM      4  C   UNL     1      -0.614   0.042  -0.710  1.00  0.00    +0.000 A 
ATOM      5  C   UNL     1       0.749  -0.008  -1.053  1.00  0.00    +0.000 A 
ATOM      6  C   UNL     1       1.749  -0.132  -0.073  1.00  0.00    +0.000 A 
ATOM      7  C   UNL     1       1.359  -0.205   1.270  1.00  0.00    +0.000 A 
ATOM      8  C   UNL     1       0.009  -0.155   1.626  1.00  0.00    +0.000 A 
ATOM      9  C   UNL     1      -0.988  -0.033   0.648  1.00  0.00    +0.000 A 
ATOM     10  C   UNL     1      -2.350   0.018   0.989  1.00  0.00    +0.000 A 
ENDROOT
BRANCH   1  12
ATOM     11  C   UNL     1      -5.664   0.308  -0.464  1.00  0.00    +0.000 C 
ATOM     12  O   UNL     1      -4.620   0.175   0.492  1.00  0.00    +0.000 OA
ENDBRANCH   1  12
BRANCH   6  13
ATOM     13  C   UNL     1       3.212  -0.196  -0.488  1.00  0.00    +0.000 C 
ATOM     14  C   UNL     1       3.864  -1.514  -0.067  1.00  0.00    +0.000 C 
BRANCH  13  15
ATOM     15  C   UNL     1       4.040   0.965   0.035  1.00  0.00    +0.000 C 
ATOM     16  O   UNL     1       3.884   1.602   1.064  1.00  0.00    +0.000 OA
BRANCH  15  17
ATOM     17  O   UNL     1       5.090   1.246  -0.770  1.00  0.00    +0.000 OA
ATOM     18  H   UNL     1       5.535   1.993  -0.316  1.00  0.00    +0.000 HD
ENDBRANCH  15  17
ENDBRANCH  13  15
ENDBRANCH   6  13
TORSDOF 4
