REMARK  Name = 
REMARK  9 active torsions:
REMARK  status: ('A' for Active; 'I' for Inactive)
REMARK    1  A    between atoms: C_1  and  C_2
REMARK    2  A    between atoms: C_5  and  C_6
REMARK    3  A    between atoms: C_6  and  S_7
REMARK    4  A    between atoms: S_7  and  C_9
REMARK    5  A    between atoms: C_14  and  O_15
REMARK    6  A    between atoms: O_15  and  C_16
REMARK    7  A    between atoms: C_20  and  C_21
REMARK    8  A    between atoms: C_22  and  O_23
REMARK    9  A    between atoms: O_23  and  C_24
REMARK                            x       y       z     vdW  Elec       q    Type
REMARK                         _______ _______ _______ _____ _____    ______ ____
ROOT
ATOM      1  S   UNL     1      -0.069   1.036   0.020  1.00  0.00    +0.000 S 
ATOM      2  O   UNL     1      -0.056   1.661  -1.347  1.00  0.00    +0.000 OA
ENDROOT
BRANCH   1   3
ATOM      3  C   UNL     1       1.635   0.538   0.315  1.00  0.00    +0.000 A 
ATOM      4  N   UNL     1       2.039  -0.236   1.297  1.00  0.00    +0.000 NA
ATOM      5  C   UNL     1       3.399  -0.344   1.124  1.00  0.00    +0.000 A 
ATOM      6  C   UNL     1       4.343  -1.052   1.877  1.00  0.00    +0.000 A 
ATOM      7  C   UNL     1       5.687  -1.002   1.479  1.00  0.00    +0.000 A 
ATOM      8  C   UNL     1       6.093  -0.266   0.360  1.00  0.00    +0.000 A 
ATOM      9  C   UNL     1       5.158   0.448  -0.402  1.00  0.00    +0.000 A 
ATOM     10  C   UNL     1       3.823   0.382   0.015  1.00  0.00    +0.000 A 
ATOM     11  N   UNL     1       2.674   0.939  -0.479  1.00  0.00    +0.000 N 
ATOM     12  H   UNL     1       2.575   1.525  -1.297  1.00  0.00    +0.000 HD
BRANCH   8  13
ATOM     13  O   UNL     1       7.440  -0.324   0.110  1.00  0.00    +0.000 OA
ATOM     14  C   UNL     1       7.924   0.430  -0.994  1.00  0.00    +0.000 C 
ENDBRANCH   8  13
ENDBRANCH   1   3
BRANCH   1  15
ATOM     15  C   UNL     1      -0.753  -0.646  -0.078  1.00  0.00    +0.000 C 
BRANCH  15  20
ATOM     16  C   UNL     1      -6.426  -0.748  -1.139  1.00  0.00    +0.000 C 
ATOM     17  C   UNL     1      -4.973  -0.700  -0.787  1.00  0.00    +0.000 A 
ATOM     18  C   UNL     1      -4.012  -1.052  -1.718  1.00  0.00    +0.000 A 
ATOM     19  N   UNL     1      -2.683  -1.028  -1.482  1.00  0.00    +0.000 NA
ATOM     20  C   UNL     1      -2.251  -0.646  -0.251  1.00  0.00    +0.000 A 
ATOM     21  C   UNL     1      -3.139  -0.292   0.776  1.00  0.00    +0.000 A 
ATOM     22  C   UNL     1      -2.670   0.092   2.150  1.00  0.00    +0.000 C 
ATOM     23  C   UNL     1      -4.508  -0.271   0.458  1.00  0.00    +0.000 A 
BRANCH  23  24
ATOM     24  O   UNL     1      -5.421   0.112   1.412  1.00  0.00    +0.000 OA
ATOM     25  C   UNL     1      -5.655   1.520   1.332  1.00  0.00    +0.000 C 
ENDBRANCH  23  24
ENDBRANCH  15  20
ENDBRANCH   1  15
TORSDOF 5
