REMARK  Name = 
REMARK  3 active torsions:
REMARK  status: ('A' for Active; 'I' for Inactive)
REMARK    1  A    between atoms: C_1  and  C_2
REMARK    2  A    between atoms: N_4  and  C_5
REMARK    3  A    between atoms: C_8  and  O_9
REMARK                            x       y       z     vdW  Elec       q    Type
REMARK                         _______ _______ _______ _____ _____    ______ ____
ROOT
ATOM      1  C   UNL     1      -0.024   0.211   0.067  1.00  0.00    +0.000 A 
ATOM      2  C   UNL     1      -0.823  -0.866  -0.328  1.00  0.00    +0.000 A 
ATOM      3  C   UNL     1      -2.218  -0.752  -0.337  1.00  0.00    +0.000 A 
ATOM      4  C   UNL     1      -2.813   0.442   0.051  1.00  0.00    +0.000 A 
ATOM      5  C   UNL     1      -2.037   1.522   0.446  1.00  0.00    +0.000 A 
ATOM      6  C   UNL     1      -0.644   1.407   0.454  1.00  0.00    +0.000 A 
ENDROOT
BRANCH   1  10
ATOM      7  C   UNL     1       3.671  -0.542  -0.055  1.00  0.00    +0.000 C 
ATOM      8  C   UNL     1       2.211  -0.885  -0.221  1.00  0.00    +0.000 C 
ATOM      9  O   UNL     1       1.868  -2.006  -0.581  1.00  0.00    +0.000 OA
ATOM     10  N   UNL     1       1.385   0.176   0.103  1.00  0.00    +0.000 N 
ATOM     11  H   UNL     1       1.838   1.028   0.408  1.00  0.00    +0.000 HD
ENDBRANCH   1  10
BRANCH   4  12
ATOM     12  O   UNL     1      -4.167   0.594   0.057  1.00  0.00    +0.000 OA
ATOM     13  H   UNL     1      -4.572  -0.238  -0.239  1.00  0.00    +0.000 HD
ENDBRANCH   4  12
TORSDOF 2
