REMARK  Name = 
REMARK  7 active torsions:
REMARK  status: ('A' for Active; 'I' for Inactive)
REMARK    1  A    between atoms: C_1  and  C_2
REMARK    2  A    between atoms: C_2  and  C_3
REMARK    3  A    between atoms: CA_6  and  N_7
REMARK    4  A    between atoms: C_8  and  C_10
REMARK    5  A    between atoms: C_10  and  C_11
REMARK    6  A    between atoms: CA_20  and  C_21
REMARK    7  A    between atoms: C_21  and  OXT_23
REMARK                            x       y       z     vdW  Elec       q    Type
REMARK                         _______ _______ _______ _____ _____    ______ ____
ROOT
ATOM      1  C   UNL     1      -3.565   0.348  -2.263  1.00  0.00    +0.000 C 
ATOM      2  C   UNL     1      -3.738   0.406  -0.734  1.00  0.00    +0.000 C 
ATOM      3  C   UNL     1      -5.183   0.819  -0.428  1.00  0.00    +0.000 C 
ATOM      4  S   UNL     1      -2.622   1.746  -0.098  1.00  0.00    +0.000 S 
ATOM      5  C   UNL     1      -1.393   0.589   0.624  1.00  0.00    +0.000 C 
ATOM      6  CA  UNL     1      -0.130   0.346  -0.250  1.00  0.00    +0.000 C 
ATOM      7  C   UNL     1      -0.875  -0.945  -0.681  1.00  0.00    +0.000 C 
ATOM      8  O   UNL     1      -0.752  -1.791  -1.537  1.00  0.00    +0.000 OA
ATOM      9  N   UNL     1      -1.854  -0.755   0.250  1.00  0.00    +0.000 N 
ATOM     10  CA  UNL     1      -3.267  -0.917  -0.075  1.00  0.00    +0.000 C 
ENDROOT
BRANCH   6  11
ATOM     11  N   UNL     1       1.155   0.102   0.464  1.00  0.00    +0.000 N 
ATOM     12  C   UNL     1       1.685   1.027   1.336  1.00  0.00    +0.000 C 
ATOM     13  O   UNL     1       1.083   2.051   1.651  1.00  0.00    +0.000 OA
ATOM     14  H   UNL     1       1.752  -0.660   0.157  1.00  0.00    +0.000 HD
BRANCH  12  15
ATOM     15  C   UNL     1       3.028   0.657   1.942  1.00  0.00    +0.000 C 
BRANCH  15  16
ATOM     16  C   UNL     1       4.063   0.232   0.929  1.00  0.00    +0.000 A 
ATOM     17  C   UNL     1       4.501   1.130  -0.056  1.00  0.00    +0.000 A 
ATOM     18  C   UNL     1       5.454   0.737  -0.997  1.00  0.00    +0.000 A 
ATOM     19  C   UNL     1       5.978  -0.554  -0.964  1.00  0.00    +0.000 A 
ATOM     20  C   UNL     1       5.555  -1.451   0.016  1.00  0.00    +0.000 A 
ATOM     21  C   UNL     1       4.603  -1.061   0.959  1.00  0.00    +0.000 A 
ENDBRANCH  15  16
ENDBRANCH  12  15
ENDBRANCH   6  11
BRANCH  10  22
ATOM     22  C   UNL     1      -4.067  -1.315   1.170  1.00  0.00    +0.000 C 
ATOM     23  O   UNL     1      -5.231  -1.688   1.174  1.00  0.00    +0.000 OA
BRANCH  22  24
ATOM     24  OXT UNL     1      -3.406  -1.201   2.341  1.00  0.00    +0.000 OA
ATOM     25  HXT UNL     1      -4.057  -1.481   3.019  1.00  0.00    +0.000 HD
ENDBRANCH  22  24
ENDBRANCH  10  22
TORSDOF 5
