REMARK  Name = 
REMARK  6 active torsions:
REMARK  status: ('A' for Active; 'I' for Inactive)
REMARK    1  A    between atoms: C_1  and  C_2
REMARK    2  A    between atoms: C_2  and  C_4
REMARK    3  A    between atoms: C_4  and  C_5
REMARK    4  A    between atoms: C_5  and  C_6
REMARK    5  A    between atoms: C_5  and  C_12
REMARK    6  A    between atoms: C_13  and  O_14
REMARK                            x       y       z     vdW  Elec       q    Type
REMARK                         _______ _______ _______ _____ _____    ______ ____
ROOT
ATOM      1  C   UNL     1       0.375   0.225   0.417  1.00  0.00    +0.000 A 
ATOM      2  C   UNL     1       0.801   0.137  -0.855  1.00  0.00    +0.000 A 
ATOM      3  C   UNL     1       2.223  -0.005  -1.177  1.00  0.00    +0.000 A 
ATOM      4  C   UNL     1       2.746   0.024  -2.477  1.00  0.00    +0.000 A 
ATOM      5  C   UNL     1       4.119  -0.138  -2.698  1.00  0.00    +0.000 A 
ATOM      6  C   UNL     1       4.988  -0.319  -1.623  1.00  0.00    +0.000 A 
ATOM      7  C   UNL     1       4.488  -0.323  -0.325  1.00  0.00    +0.000 A 
ATOM      8  C   UNL     1       3.117  -0.158  -0.122  1.00  0.00    +0.000 A 
ATOM      9  O   UNL     1       2.677  -0.119   1.210  1.00  0.00    +0.000 OA
ATOM     10  C   UNL     1       1.356   0.149   1.531  1.00  0.00    +0.000 A 
ATOM     11  O   UNL     1       1.015   0.285   2.703  1.00  0.00    +0.000 OA
ENDROOT
BRANCH   2  12
ATOM     12  O   UNL     1      -0.092   0.150  -1.908  1.00  0.00    +0.000 OA
ATOM     13  H   UNL     1       0.235  -0.460  -2.590  1.00  0.00    +0.000 HD
ENDBRANCH   2  12
BRANCH   1  14
ATOM     14  C   UNL     1      -1.083   0.392   0.841  1.00  0.00    +0.000 C 
BRANCH  14  15
ATOM     15  C   UNL     1      -1.904  -0.868   0.556  1.00  0.00    +0.000 A 
ATOM     16  C   UNL     1      -1.821  -1.949   1.452  1.00  0.00    +0.000 A 
ATOM     17  C   UNL     1      -2.544  -3.122   1.229  1.00  0.00    +0.000 A 
ATOM     18  C   UNL     1      -3.359  -3.235   0.106  1.00  0.00    +0.000 A 
ATOM     19  C   UNL     1      -3.447  -2.178  -0.796  1.00  0.00    +0.000 A 
ATOM     20  C   UNL     1      -2.723  -1.003  -0.575  1.00  0.00    +0.000 A 
ENDBRANCH  14  15
BRANCH  14  21
ATOM     21  C   UNL     1      -1.718   1.697   0.322  1.00  0.00    +0.000 C 
BRANCH  21  23
ATOM     22  C   UNL     1      -1.434   3.316   2.316  1.00  0.00    +0.000 C 
ATOM     23  C   UNL     1      -1.039   2.914   0.918  1.00  0.00    +0.000 C 
ATOM     24  O   UNL     1      -0.174   3.533   0.298  1.00  0.00    +0.000 OA
ENDBRANCH  21  23
ENDBRANCH  14  21
ENDBRANCH   1  14
TORSDOF 5
