MODEL 1
REMARK VINA RESULT:    -5.461      0.000      0.000
REMARK INTER + INTRA:          -7.294
REMARK INTER:                  -6.579
REMARK INTRA:                  -0.715
REMARK UNBOUND:                -0.715
REMARK  Name = 
REMARK  5 active torsions:
REMARK  status: ('A' for Active; 'I' for Inactive)
REMARK    1  A    between atoms: C_1  and  C_2
REMARK    2  A    between atoms: C_2  and  O_4
REMARK    3  A    between atoms: O_4  and  C_5
REMARK    4  A    between atoms: C_10  and  C_11
REMARK    5  A    between atoms: C_11  and  O_13
REMARK                            x       y       z     vdW  Elec       q    Type
REMARK                         _______ _______ _______ _____ _____    ______ ____
ROOT
ATOM      1  C   UNL     1      -9.991  14.937  33.283  1.00  0.00    +0.000 A 
ATOM      2  C   UNL     1      -9.866  14.417  31.990  1.00  0.00    +0.000 A 
ATOM      3  C   UNL     1      -9.031  15.049  31.070  1.00  0.00    +0.000 A 
ATOM      4  C   UNL     1      -8.318  16.187  31.445  1.00  0.00    +0.000 A 
ATOM      5  C   UNL     1      -8.429  16.693  32.744  1.00  0.00    +0.000 A 
ATOM      6  C   UNL     1      -9.265  16.068  33.684  1.00  0.00    +0.000 A 
ENDROOT
BRANCH   6   7
ATOM      7  C   UNL     1      -9.367  16.584  35.075  1.00  0.00    +0.000 C 
ATOM      8  O   UNL     1      -8.470  16.671  35.893  1.00  0.00    +0.000 OA
BRANCH   7   9
ATOM      9  O   UNL     1     -10.614  16.982  35.388  1.00  0.00    +0.000 OA
ATOM     10  H   UNL     1     -10.670  16.833  36.355  1.00  0.00    +0.000 HD
ENDBRANCH   7   9
ENDBRANCH   6   7
BRANCH   1  11
ATOM     11  O   UNL     1     -10.821  14.239  34.165  1.00  0.00    +0.000 OA
BRANCH  11  13
ATOM     12  C   UNL     1     -12.855  13.121  33.788  1.00  0.00    +0.000 C 
ATOM     13  C   UNL     1     -12.171  14.450  33.908  1.00  0.00    +0.000 C 
ATOM     14  O   UNL     1     -12.730  15.530  33.774  1.00  0.00    +0.000 OA
ENDBRANCH  11  13
ENDBRANCH   1  11
TORSDOF 4
ENDMDL
MODEL 2
REMARK VINA RESULT:    -5.337      1.457      3.180
REMARK INTER + INTRA:          -7.145
REMARK INTER:                  -6.585
REMARK INTRA:                  -0.560
REMARK UNBOUND:                -0.715
REMARK  Name = 
REMARK  5 active torsions:
REMARK  status: ('A' for Active; 'I' for Inactive)
REMARK    1  A    between atoms: C_1  and  C_2
REMARK    2  A    between atoms: C_2  and  O_4
REMARK    3  A    between atoms: O_4  and  C_5
REMARK    4  A    between atoms: C_10  and  C_11
REMARK    5  A    between atoms: C_11  and  O_13
REMARK                            x       y       z     vdW  Elec       q    Type
REMARK                         _______ _______ _______ _____ _____    ______ ____
ROOT
ATOM      1  C   UNL     1     -10.094  15.301  33.225  1.00  0.00    +0.000 A 
ATOM      2  C   UNL     1      -8.799  15.809  33.079  1.00  0.00    +0.000 A 
ATOM      3  C   UNL     1      -8.439  16.453  31.896  1.00  0.00    +0.000 A 
ATOM      4  C   UNL     1      -9.374  16.598  30.871  1.00  0.00    +0.000 A 
ATOM      5  C   UNL     1     -10.674  16.107  31.028  1.00  0.00    +0.000 A 
ATOM      6  C   UNL     1     -11.053  15.457  32.214  1.00  0.00    +0.000 A 
ENDROOT
BRANCH   6   7
ATOM      7  C   UNL     1     -12.441  14.957  32.398  1.00  0.00    +0.000 C 
ATOM      8  O   UNL     1     -12.966  14.019  31.828  1.00  0.00    +0.000 OA
BRANCH   7   9
ATOM      9  O   UNL     1     -13.128  15.668  33.313  1.00  0.00    +0.000 OA
ATOM     10  H   UNL     1     -14.065  15.462  33.112  1.00  0.00    +0.000 HD
ENDBRANCH   7   9
ENDBRANCH   6   7
BRANCH   1  11
ATOM     11  O   UNL     1     -10.398  14.694  34.446  1.00  0.00    +0.000 OA
BRANCH  11  13
ATOM     12  C   UNL     1     -10.204  14.991  36.771  1.00  0.00    +0.000 C 
ATOM     13  C   UNL     1     -10.598  15.617  35.467  1.00  0.00    +0.000 C 
ATOM     14  O   UNL     1     -11.041  16.751  35.350  1.00  0.00    +0.000 OA
ENDBRANCH  11  13
ENDBRANCH   1  11
TORSDOF 4
ENDMDL
MODEL 3
REMARK VINA RESULT:    -5.257     10.320     12.166
REMARK INTER + INTRA:          -7.048
REMARK INTER:                  -6.355
REMARK INTRA:                  -0.693
REMARK UNBOUND:                -0.715
REMARK  Name = 
REMARK  5 active torsions:
REMARK  status: ('A' for Active; 'I' for Inactive)
REMARK    1  A    between atoms: C_1  and  C_2
REMARK    2  A    between atoms: C_2  and  O_4
REMARK    3  A    between atoms: O_4  and  C_5
REMARK    4  A    between atoms: C_10  and  C_11
REMARK    5  A    between atoms: C_11  and  O_13
REMARK                            x       y       z     vdW  Elec       q    Type
REMARK                         _______ _______ _______ _____ _____    ______ ____
ROOT
ATOM      1  C   UNL     1      -7.763  16.121  22.789  1.00  0.00    +0.000 A 
ATOM      2  C   UNL     1      -7.682  15.634  24.098  1.00  0.00    +0.000 A 
ATOM      3  C   UNL     1      -8.817  15.101  24.707  1.00  0.00    +0.000 A 
ATOM      4  C   UNL     1     -10.021  15.044  24.006  1.00  0.00    +0.000 A 
ATOM      5  C   UNL     1     -10.094  15.514  22.690  1.00  0.00    +0.000 A 
ATOM      6  C   UNL     1      -8.960  16.053  22.062  1.00  0.00    +0.000 A 
ENDROOT
BRANCH   6   7
ATOM      7  C   UNL     1      -9.023  16.528  20.654  1.00  0.00    +0.000 C 
ATOM      8  O   UNL     1      -9.188  15.849  19.657  1.00  0.00    +0.000 OA
BRANCH   7   9
ATOM      9  O   UNL     1      -8.879  17.863  20.552  1.00  0.00    +0.000 OA
ATOM     10  H   UNL     1      -9.672  18.218  21.006  1.00  0.00    +0.000 HD
ENDBRANCH   7   9
ENDBRANCH   6   7
BRANCH   1  11
ATOM     11  O   UNL     1      -6.582  16.615  22.227  1.00  0.00    +0.000 OA
BRANCH  11  13
ATOM     12  C   UNL     1      -4.958  17.834  23.413  1.00  0.00    +0.000 C 
ATOM     13  C   UNL     1      -6.267  17.890  22.683  1.00  0.00    +0.000 C 
ATOM     14  O   UNL     1      -6.939  18.903  22.544  1.00  0.00    +0.000 OA
ENDBRANCH  11  13
ENDBRANCH   1  11
TORSDOF 4
ENDMDL
MODEL 4
REMARK VINA RESULT:    -5.239      6.245      7.428
REMARK INTER + INTRA:          -7.026
REMARK INTER:                  -6.386
REMARK INTRA:                  -0.640
REMARK UNBOUND:                -0.715
REMARK  Name = 
REMARK  5 active torsions:
REMARK  status: ('A' for Active; 'I' for Inactive)
REMARK    1  A    between atoms: C_1  and  C_2
REMARK    2  A    between atoms: C_2  and  O_4
REMARK    3  A    between atoms: O_4  and  C_5
REMARK    4  A    between atoms: C_10  and  C_11
REMARK    5  A    between atoms: C_11  and  O_13
REMARK                            x       y       z     vdW  Elec       q    Type
REMARK                         _______ _______ _______ _____ _____    ______ ____
ROOT
ATOM      1  C   UNL     1      -9.806  15.422  26.167  1.00  0.00    +0.000 A 
ATOM      2  C   UNL     1     -10.598  15.518  25.018  1.00  0.00    +0.000 A 
ATOM      3  C   UNL     1     -10.030  15.284  23.767  1.00  0.00    +0.000 A 
ATOM      4  C   UNL     1      -8.681  14.944  23.668  1.00  0.00    +0.000 A 
ATOM      5  C   UNL     1      -7.896  14.829  24.820  1.00  0.00    +0.000 A 
ATOM      6  C   UNL     1      -8.453  15.061  26.088  1.00  0.00    +0.000 A 
ENDROOT
BRANCH   6   7
ATOM      7  C   UNL     1      -7.632  14.913  27.319  1.00  0.00    +0.000 C 
ATOM      8  O   UNL     1      -6.832  15.712  27.768  1.00  0.00    +0.000 OA
BRANCH   7   9
ATOM      9  O   UNL     1      -7.856  13.745  27.951  1.00  0.00    +0.000 OA
ATOM     10  H   UNL     1      -8.225  14.017  28.818  1.00  0.00    +0.000 HD
ENDBRANCH   7   9
ENDBRANCH   6   7
BRANCH   1  11
ATOM     11  O   UNL     1     -10.444  15.640  27.391  1.00  0.00    +0.000 OA
BRANCH  11  13
ATOM     12  C   UNL     1     -12.609  14.964  28.011  1.00  0.00    +0.000 C 
ATOM     13  C   UNL     1     -11.185  14.541  27.810  1.00  0.00    +0.000 C 
ATOM     14  O   UNL     1     -10.766  13.408  28.009  1.00  0.00    +0.000 OA
ENDBRANCH  11  13
ENDBRANCH   1  11
TORSDOF 4
ENDMDL
MODEL 5
REMARK VINA RESULT:    -5.181      3.992      5.023
REMARK INTER + INTRA:          -6.957
REMARK INTER:                  -6.461
REMARK INTRA:                  -0.496
REMARK UNBOUND:                -0.715
REMARK  Name = 
REMARK  5 active torsions:
REMARK  status: ('A' for Active; 'I' for Inactive)
REMARK    1  A    between atoms: C_1  and  C_2
REMARK    2  A    between atoms: C_2  and  O_4
REMARK    3  A    between atoms: O_4  and  C_5
REMARK    4  A    between atoms: C_10  and  C_11
REMARK    5  A    between atoms: C_11  and  O_13
REMARK                            x       y       z     vdW  Elec       q    Type
REMARK                         _______ _______ _______ _____ _____    ______ ____
ROOT
ATOM      1  C   UNL     1     -10.456  15.457  30.011  1.00  0.00    +0.000 A 
ATOM      2  C   UNL     1     -10.074  14.715  31.134  1.00  0.00    +0.000 A 
ATOM      3  C   UNL     1      -9.127  15.234  32.014  1.00  0.00    +0.000 A 
ATOM      4  C   UNL     1      -8.575  16.493  31.780  1.00  0.00    +0.000 A 
ATOM      5  C   UNL     1      -8.974  17.242  30.668  1.00  0.00    +0.000 A 
ATOM      6  C   UNL     1      -9.928  16.734  29.771  1.00  0.00    +0.000 A 
ENDROOT
BRANCH   6   7
ATOM      7  C   UNL     1     -10.378  17.536  28.603  1.00  0.00    +0.000 C 
ATOM      8  O   UNL     1      -9.782  17.705  27.555  1.00  0.00    +0.000 OA
BRANCH   7   9
ATOM      9  O   UNL     1     -11.585  18.101  28.798  1.00  0.00    +0.000 OA
ATOM     10  H   UNL     1     -11.777  18.542  27.944  1.00  0.00    +0.000 HD
ENDBRANCH   7   9
ENDBRANCH   6   7
BRANCH   1  11
ATOM     11  O   UNL     1     -11.432  14.892  29.185  1.00  0.00    +0.000 OA
BRANCH  11  13
ATOM     12  C   UNL     1     -11.887  12.654  28.625  1.00  0.00    +0.000 C 
ATOM     13  C   UNL     1     -10.951  13.813  28.453  1.00  0.00    +0.000 C 
ATOM     14  O   UNL     1      -9.925  13.780  27.787  1.00  0.00    +0.000 OA
ENDBRANCH  11  13
ENDBRANCH   1  11
TORSDOF 4
ENDMDL
MODEL 6
REMARK VINA RESULT:    -5.179     10.819     12.137
REMARK INTER + INTRA:          -6.954
REMARK INTER:                  -6.445
REMARK INTRA:                  -0.509
REMARK UNBOUND:                -0.715
REMARK  Name = 
REMARK  5 active torsions:
REMARK  status: ('A' for Active; 'I' for Inactive)
REMARK    1  A    between atoms: C_1  and  C_2
REMARK    2  A    between atoms: C_2  and  O_4
REMARK    3  A    between atoms: O_4  and  C_5
REMARK    4  A    between atoms: C_10  and  C_11
REMARK    5  A    between atoms: C_11  and  O_13
REMARK                            x       y       z     vdW  Elec       q    Type
REMARK                         _______ _______ _______ _____ _____    ______ ____
ROOT
ATOM      1  C   UNL     1      -8.298  17.056  21.797  1.00  0.00    +0.000 A 
ATOM      2  C   UNL     1      -9.130  16.316  20.950  1.00  0.00    +0.000 A 
ATOM      3  C   UNL     1      -8.853  16.261  19.585  1.00  0.00    +0.000 A 
ATOM      4  C   UNL     1      -7.742  16.932  19.074  1.00  0.00    +0.000 A 
ATOM      5  C   UNL     1      -6.901  17.655  19.925  1.00  0.00    +0.000 A 
ATOM      6  C   UNL     1      -7.166  17.720  21.303  1.00  0.00    +0.000 A 
ENDROOT
BRANCH   6   7
ATOM      7  C   UNL     1      -6.259  18.462  22.219  1.00  0.00    +0.000 C 
ATOM      8  O   UNL     1      -5.052  18.339  22.316  1.00  0.00    +0.000 OA
BRANCH   7   9
ATOM      9  O   UNL     1      -6.917  19.350  22.988  1.00  0.00    +0.000 OA
ATOM     10  H   UNL     1      -6.252  20.050  23.157  1.00  0.00    +0.000 HD
ENDBRANCH   7   9
ENDBRANCH   6   7
BRANCH   1  11
ATOM     11  O   UNL     1      -8.616  17.045  23.158  1.00  0.00    +0.000 OA
BRANCH  11  13
ATOM     12  C   UNL     1      -9.848  15.460  24.382  1.00  0.00    +0.000 C 
ATOM     13  C   UNL     1      -8.543  15.773  23.713  1.00  0.00    +0.000 C 
ATOM     14  O   UNL     1      -7.579  15.020  23.692  1.00  0.00    +0.000 OA
ENDBRANCH  11  13
ENDBRANCH   1  11
TORSDOF 4
ENDMDL
MODEL 7
REMARK VINA RESULT:    -5.149     10.218     11.644
REMARK INTER + INTRA:          -6.918
REMARK INTER:                  -6.199
REMARK INTRA:                  -0.718
REMARK UNBOUND:                -0.715
REMARK  Name = 
REMARK  5 active torsions:
REMARK  status: ('A' for Active; 'I' for Inactive)
REMARK    1  A    between atoms: C_1  and  C_2
REMARK    2  A    between atoms: C_2  and  O_4
REMARK    3  A    between atoms: O_4  and  C_5
REMARK    4  A    between atoms: C_10  and  C_11
REMARK    5  A    between atoms: C_11  and  O_13
REMARK                            x       y       z     vdW  Elec       q    Type
REMARK                         _______ _______ _______ _____ _____    ______ ____
ROOT
ATOM      1  C   UNL     1      -7.833  15.933  22.560  1.00  0.00    +0.000 A 
ATOM      2  C   UNL     1      -8.770  14.941  22.869  1.00  0.00    +0.000 A 
ATOM      3  C   UNL     1      -9.145  14.735  24.196  1.00  0.00    +0.000 A 
ATOM      4  C   UNL     1      -8.595  15.525  25.205  1.00  0.00    +0.000 A 
ATOM      5  C   UNL     1      -7.674  16.530  24.891  1.00  0.00    +0.000 A 
ATOM      6  C   UNL     1      -7.286  16.751  23.559  1.00  0.00    +0.000 A 
ENDROOT
BRANCH   6   7
ATOM      7  C   UNL     1      -6.329  17.835  23.215  1.00  0.00    +0.000 C 
ATOM      8  O   UNL     1      -5.140  17.875  23.472  1.00  0.00    +0.000 OA
BRANCH   7   9
ATOM      9  O   UNL     1      -6.914  18.846  22.543  1.00  0.00    +0.000 OA
ATOM     10  H   UNL     1      -7.280  19.416  23.252  1.00  0.00    +0.000 HD
ENDBRANCH   7   9
ENDBRANCH   6   7
BRANCH   1  11
ATOM     11  O   UNL     1      -7.524  16.107  21.208  1.00  0.00    +0.000 OA
BRANCH  11  13
ATOM     12  C   UNL     1      -8.874  15.872  19.298  1.00  0.00    +0.000 C 
ATOM     13  C   UNL     1      -8.555  16.711  20.498  1.00  0.00    +0.000 C 
ATOM     14  O   UNL     1      -9.112  17.766  20.773  1.00  0.00    +0.000 OA
ENDBRANCH  11  13
ENDBRANCH   1  11
TORSDOF 4
ENDMDL
MODEL 8
REMARK VINA RESULT:    -5.127      6.564      8.158
REMARK INTER + INTRA:          -6.891
REMARK INTER:                  -6.377
REMARK INTRA:                  -0.514
REMARK UNBOUND:                -0.715
REMARK  Name = 
REMARK  5 active torsions:
REMARK  status: ('A' for Active; 'I' for Inactive)
REMARK    1  A    between atoms: C_1  and  C_2
REMARK    2  A    between atoms: C_2  and  O_4
REMARK    3  A    between atoms: O_4  and  C_5
REMARK    4  A    between atoms: C_10  and  C_11
REMARK    5  A    between atoms: C_11  and  O_13
REMARK                            x       y       z     vdW  Elec       q    Type
REMARK                         _______ _______ _______ _____ _____    ______ ____
ROOT
ATOM      1  C   UNL     1      -8.111  16.678  25.991  1.00  0.00    +0.000 A 
ATOM      2  C   UNL     1      -7.604  15.941  24.915  1.00  0.00    +0.000 A 
ATOM      3  C   UNL     1      -8.476  15.224  24.098  1.00  0.00    +0.000 A 
ATOM      4  C   UNL     1      -9.848  15.255  24.348  1.00  0.00    +0.000 A 
ATOM      5  C   UNL     1     -10.354  16.009  25.412  1.00  0.00    +0.000 A 
ATOM      6  C   UNL     1      -9.489  16.737  26.245  1.00  0.00    +0.000 A 
ENDROOT
BRANCH   6   7
ATOM      7  C   UNL     1     -10.022  17.563  27.360  1.00  0.00    +0.000 C 
ATOM      8  O   UNL     1     -10.440  17.168  28.432  1.00  0.00    +0.000 OA
BRANCH   7   9
ATOM      9  O   UNL     1     -10.005  18.881  27.080  1.00  0.00    +0.000 OA
ATOM     10  H   UNL     1     -10.955  19.120  27.028  1.00  0.00    +0.000 HD
ENDBRANCH   7   9
ENDBRANCH   6   7
BRANCH   1  11
ATOM     11  O   UNL     1      -7.186  17.397  26.753  1.00  0.00    +0.000 OA
BRANCH  11  13
ATOM     12  C   UNL     1      -4.975  16.947  27.415  1.00  0.00    +0.000 C 
ATOM     13  C   UNL     1      -6.419  16.578  27.574  1.00  0.00    +0.000 C 
ATOM     14  O   UNL     1      -6.828  15.681  28.300  1.00  0.00    +0.000 OA
ENDBRANCH  11  13
ENDBRANCH   1  11
TORSDOF 4
ENDMDL
MODEL 9
REMARK VINA RESULT:    -4.961      3.959      5.655
REMARK INTER + INTRA:          -6.692
REMARK INTER:                  -6.231
REMARK INTRA:                  -0.461
REMARK UNBOUND:                -0.715
REMARK  Name = 
REMARK  5 active torsions:
REMARK  status: ('A' for Active; 'I' for Inactive)
REMARK    1  A    between atoms: C_1  and  C_2
REMARK    2  A    between atoms: C_2  and  O_4
REMARK    3  A    between atoms: O_4  and  C_5
REMARK    4  A    between atoms: C_10  and  C_11
REMARK    5  A    between atoms: C_11  and  O_13
REMARK                            x       y       z     vdW  Elec       q    Type
REMARK                         _______ _______ _______ _____ _____    ______ ____
ROOT
ATOM      1  C   UNL     1      -9.188  16.491  30.093  1.00  0.00    +0.000 A 
ATOM      2  C   UNL     1      -8.306  16.014  31.069  1.00  0.00    +0.000 A 
ATOM      3  C   UNL     1      -8.806  15.556  32.287  1.00  0.00    +0.000 A 
ATOM      4  C   UNL     1     -10.181  15.564  32.522  1.00  0.00    +0.000 A 
ATOM      5  C   UNL     1     -11.062  16.023  31.537  1.00  0.00    +0.000 A 
ATOM      6  C   UNL     1     -10.575  16.487  30.304  1.00  0.00    +0.000 A 
ENDROOT
BRANCH   6   7
ATOM      7  C   UNL     1     -11.507  16.949  29.242  1.00  0.00    +0.000 C 
ATOM      8  O   UNL     1     -12.465  16.347  28.794  1.00  0.00    +0.000 OA
BRANCH   7   9
ATOM      9  O   UNL     1     -11.196  18.175  28.780  1.00  0.00    +0.000 OA
ATOM     10  H   UNL     1     -11.947  18.732  29.074  1.00  0.00    +0.000 HD
ENDBRANCH   7   9
ENDBRANCH   6   7
BRANCH   1  11
ATOM     11  O   UNL     1      -8.624  16.907  28.884  1.00  0.00    +0.000 OA
BRANCH  11  13
ATOM     12  C   UNL     1      -8.737  14.866  27.721  1.00  0.00    +0.000 C 
ATOM     13  C   UNL     1      -7.840  15.922  28.294  1.00  0.00    +0.000 C 
ATOM     14  O   UNL     1      -6.617  15.888  28.254  1.00  0.00    +0.000 OA
ENDBRANCH  11  13
ENDBRANCH   1  11
TORSDOF 4
ENDMDL
