MODEL 1
REMARK VINA RESULT:    -8.558      0.000      0.000
REMARK INTER + INTRA:         -18.901
REMARK INTER:                 -15.312
REMARK INTRA:                  -3.589
REMARK UNBOUND:                -3.589
REMARK  Name = 
REMARK  17 active torsions:
REMARK  status: ('A' for Active; 'I' for Inactive)
REMARK    1  A    between atoms: C_1  and  C_2
REMARK    2  A    between atoms: C_2  and  C_3
REMARK    3  A    between atoms: C_2  and  C_4
REMARK    4  A    between atoms: C_5  and  C_6
REMARK    5  A    between atoms: N_8  and  C_9
REMARK    6  A    between atoms: C_15  and  C_16
REMARK    7  A    between atoms: C_22  and  C_23
REMARK    8  A    between atoms: N_30  and  C_31
REMARK    9  A    between atoms: C_31  and  C_32
REMARK   10  A    between atoms: C_32  and  C_33
REMARK   11  A    between atoms: C_33  and  O_34
REMARK   12  A    between atoms: C_33  and  C_35
REMARK   13  A    between atoms: C_35  and  C_36
REMARK   14  A    between atoms: C_36  and  O_37
REMARK   15  A    between atoms: C_36  and  C_38
REMARK   16  A    between atoms: C_38  and  C_39
REMARK   17  A    between atoms: C_39  and  O_41
REMARK                            x       y       z     vdW  Elec       q    Type
REMARK                         _______ _______ _______ _____ _____    ______ ____
ROOT
ATOM      1  C   UNL     1      -9.570  15.553  31.114  1.00  0.00    +0.000 A 
ATOM      2  C   UNL     1     -10.799  14.883  31.003  1.00  0.00    +0.000 A 
ATOM      3  C   UNL     1     -10.993  14.572  29.623  1.00  0.00    +0.000 A 
ATOM      4  C   UNL     1      -9.904  15.054  28.915  1.00  0.00    +0.000 A 
ATOM      5  N   UNL     1      -9.008  15.595  29.838  1.00  0.00    +0.000 N 
ENDROOT
BRANCH   4   6
ATOM      6  C   UNL     1      -9.715  15.084  27.460  1.00  0.00    +0.000 A 
ATOM      7  C   UNL     1      -8.678  14.342  26.878  1.00  0.00    +0.000 A 
ATOM      8  C   UNL     1      -8.481  14.371  25.497  1.00  0.00    +0.000 A 
ATOM      9  C   UNL     1      -9.317  15.147  24.703  1.00  0.00    +0.000 A 
ATOM     10  F   UNL     1      -9.129  15.175  23.378  1.00  0.00    +0.000 F 
ATOM     11  C   UNL     1     -10.344  15.898  25.264  1.00  0.00    +0.000 A 
ATOM     12  C   UNL     1     -10.540  15.870  26.647  1.00  0.00    +0.000 A 
ENDBRANCH   4   6
BRANCH   3  13
ATOM     13  C   UNL     1     -12.165  13.993  28.981  1.00  0.00    +0.000 A 
ATOM     14  C   UNL     1     -12.156  12.647  28.599  1.00  0.00    +0.000 A 
ATOM     15  C   UNL     1     -13.262  12.094  27.952  1.00  0.00    +0.000 A 
ATOM     16  C   UNL     1     -14.379  12.883  27.682  1.00  0.00    +0.000 A 
ATOM     17  C   UNL     1     -14.393  14.226  28.055  1.00  0.00    +0.000 A 
ATOM     18  C   UNL     1     -13.286  14.783  28.700  1.00  0.00    +0.000 A 
ENDBRANCH   3  13
BRANCH   2  19
ATOM     19  C   UNL     1     -11.724  14.591  32.119  1.00  0.00    +0.000 C 
ATOM     20  O   UNL     1     -12.794  15.175  32.232  1.00  0.00    +0.000 OA
ATOM     21  N   UNL     1     -11.234  13.634  32.988  1.00  0.00    +0.000 N 
ATOM     22  H   UNL     1     -10.325  13.256  32.762  1.00  0.00    +0.000 HD
BRANCH  21  23
ATOM     23  C   UNL     1     -11.849  13.108  34.141  1.00  0.00    +0.000 A 
ATOM     24  C   UNL     1     -11.148  13.236  35.347  1.00  0.00    +0.000 A 
ATOM     25  C   UNL     1     -11.684  12.745  36.541  1.00  0.00    +0.000 A 
ATOM     26  C   UNL     1     -12.927  12.118  36.538  1.00  0.00    +0.000 A 
ATOM     27  C   UNL     1     -13.630  11.984  35.343  1.00  0.00    +0.000 A 
ATOM     28  C   UNL     1     -13.093  12.478  34.149  1.00  0.00    +0.000 A 
ENDBRANCH  21  23
ENDBRANCH   2  19
BRANCH   1  30
ATOM     29  C   UNL     1      -8.177  15.010  33.149  1.00  0.00    +0.000 C 
ATOM     30  C   UNL     1      -8.979  16.089  32.418  1.00  0.00    +0.000 C 
ATOM     31  C   UNL     1      -8.228  17.413  32.357  1.00  0.00    +0.000 C 
ENDBRANCH   1  30
BRANCH   5  32
ATOM     32  C   UNL     1      -7.723  16.168  29.448  1.00  0.00    +0.000 C 
BRANCH  32  33
ATOM     33  C   UNL     1      -7.796  17.465  28.637  1.00  0.00    +0.000 C 
BRANCH  33  34
ATOM     34  C   UNL     1      -6.716  17.604  27.562  1.00  0.00    +0.000 C 
BRANCH  34  35
ATOM     35  O   UNL     1      -5.953  16.403  27.461  1.00  0.00    +0.000 OA
ATOM     36  H   UNL     1      -6.389  15.815  26.821  1.00  0.00    +0.000 HD
ENDBRANCH  34  35
BRANCH  34  37
ATOM     37  C   UNL     1      -7.265  17.951  26.167  1.00  0.00    +0.000 C 
BRANCH  37  38
ATOM     38  C   UNL     1      -6.446  17.528  24.936  1.00  0.00    +0.000 C 
BRANCH  38  39
ATOM     39  O   UNL     1      -5.139  18.102  25.028  1.00  0.00    +0.000 OA
ATOM     40  H   UNL     1      -5.264  19.068  25.119  1.00  0.00    +0.000 HD
ENDBRANCH  38  39
BRANCH  38  41
ATOM     41  C   UNL     1      -7.091  17.887  23.598  1.00  0.00    +0.000 C 
BRANCH  41  42
ATOM     42  C   UNL     1      -6.224  18.856  22.846  1.00  0.00    +0.000 C 
ATOM     43  O   UNL     1      -5.301  18.574  22.098  1.00  0.00    +0.000 OA
BRANCH  42  44
ATOM     44  O   UNL     1      -6.535  20.141  23.100  1.00  0.00    +0.000 OA
ATOM     45  H   UNL     1      -5.677  20.573  23.287  1.00  0.00    +0.000 HD
ENDBRANCH  42  44
ENDBRANCH  41  42
ENDBRANCH  38  41
ENDBRANCH  37  38
ENDBRANCH  34  37
ENDBRANCH  33  34
ENDBRANCH  32  33
ENDBRANCH   5  32
TORSDOF 15
ENDMDL
MODEL 2
REMARK VINA RESULT:    -8.274      2.350      4.677
REMARK INTER + INTRA:         -18.392
REMARK INTER:                 -15.390
REMARK INTRA:                  -3.002
REMARK UNBOUND:                -3.589
REMARK  Name = 
REMARK  17 active torsions:
REMARK  status: ('A' for Active; 'I' for Inactive)
REMARK    1  A    between atoms: C_1  and  C_2
REMARK    2  A    between atoms: C_2  and  C_3
REMARK    3  A    between atoms: C_2  and  C_4
REMARK    4  A    between atoms: C_5  and  C_6
REMARK    5  A    between atoms: N_8  and  C_9
REMARK    6  A    between atoms: C_15  and  C_16
REMARK    7  A    between atoms: C_22  and  C_23
REMARK    8  A    between atoms: N_30  and  C_31
REMARK    9  A    between atoms: C_31  and  C_32
REMARK   10  A    between atoms: C_32  and  C_33
REMARK   11  A    between atoms: C_33  and  O_34
REMARK   12  A    between atoms: C_33  and  C_35
REMARK   13  A    between atoms: C_35  and  C_36
REMARK   14  A    between atoms: C_36  and  O_37
REMARK   15  A    between atoms: C_36  and  C_38
REMARK   16  A    between atoms: C_38  and  C_39
REMARK   17  A    between atoms: C_39  and  O_41
REMARK                            x       y       z     vdW  Elec       q    Type
REMARK                         _______ _______ _______ _____ _____    ______ ____
ROOT
ATOM      1  C   UNL     1     -11.875  14.624  28.291  1.00  0.00    +0.000 A 
ATOM      2  C   UNL     1     -11.579  14.658  29.663  1.00  0.00    +0.000 A 
ATOM      3  C   UNL     1     -10.349  15.368  29.817  1.00  0.00    +0.000 A 
ATOM      4  C   UNL     1      -9.908  15.746  28.560  1.00  0.00    +0.000 A 
ATOM      5  N   UNL     1     -10.877  15.346  27.637  1.00  0.00    +0.000 N 
ENDROOT
BRANCH   4   6
ATOM      6  C   UNL     1      -8.636  16.382  28.203  1.00  0.00    +0.000 A 
ATOM      7  C   UNL     1      -8.609  17.741  27.859  1.00  0.00    +0.000 A 
ATOM      8  C   UNL     1      -7.406  18.354  27.507  1.00  0.00    +0.000 A 
ATOM      9  C   UNL     1      -6.235  17.605  27.493  1.00  0.00    +0.000 A 
ATOM     10  F   UNL     1      -5.080  18.194  27.155  1.00  0.00    +0.000 F 
ATOM     11  C   UNL     1      -6.245  16.255  27.821  1.00  0.00    +0.000 A 
ATOM     12  C   UNL     1      -7.448  15.640  28.172  1.00  0.00    +0.000 A 
ENDBRANCH   4   6
BRANCH   3  13
ATOM     13  C   UNL     1      -9.563  15.565  31.028  1.00  0.00    +0.000 A 
ATOM     14  C   UNL     1      -9.186  14.462  31.801  1.00  0.00    +0.000 A 
ATOM     15  C   UNL     1      -8.464  14.646  32.980  1.00  0.00    +0.000 A 
ATOM     16  C   UNL     1      -8.118  15.932  33.393  1.00  0.00    +0.000 A 
ATOM     17  C   UNL     1      -8.495  17.036  32.630  1.00  0.00    +0.000 A 
ATOM     18  C   UNL     1      -9.221  16.855  31.450  1.00  0.00    +0.000 A 
ENDBRANCH   3  13
BRANCH   2  19
ATOM     19  C   UNL     1     -12.389  14.040  30.734  1.00  0.00    +0.000 C 
ATOM     20  O   UNL     1     -13.004  14.720  31.545  1.00  0.00    +0.000 OA
ATOM     21  N   UNL     1     -12.343  12.658  30.714  1.00  0.00    +0.000 N 
ATOM     22  H   UNL     1     -11.777  12.246  29.986  1.00  0.00    +0.000 HD
BRANCH  21  23
ATOM     23  C   UNL     1     -12.998  11.752  31.570  1.00  0.00    +0.000 A 
ATOM     24  C   UNL     1     -13.357  10.512  31.025  1.00  0.00    +0.000 A 
ATOM     25  C   UNL     1     -14.008   9.551  31.804  1.00  0.00    +0.000 A 
ATOM     26  C   UNL     1     -14.309   9.824  33.136  1.00  0.00    +0.000 A 
ATOM     27  C   UNL     1     -13.958  11.054  33.685  1.00  0.00    +0.000 A 
ATOM     28  C   UNL     1     -13.305  12.015  32.905  1.00  0.00    +0.000 A 
ENDBRANCH  21  23
ENDBRANCH   2  19
BRANCH   1  30
ATOM     29  C   UNL     1     -12.903  12.424  27.596  1.00  0.00    +0.000 C 
ATOM     30  C   UNL     1     -13.096  13.941  27.675  1.00  0.00    +0.000 C 
ATOM     31  C   UNL     1     -14.464  14.311  28.232  1.00  0.00    +0.000 C 
ENDBRANCH   1  30
BRANCH   5  32
ATOM     32  C   UNL     1     -10.760  15.612  26.206  1.00  0.00    +0.000 C 
BRANCH  32  33
ATOM     33  C   UNL     1      -9.767  14.728  25.446  1.00  0.00    +0.000 C 
BRANCH  33  34
ATOM     34  C   UNL     1      -9.341  15.277  24.083  1.00  0.00    +0.000 C 
BRANCH  34  35
ATOM     35  O   UNL     1     -10.204  16.339  23.679  1.00  0.00    +0.000 OA
ATOM     36  H   UNL     1     -10.795  16.005  22.982  1.00  0.00    +0.000 HD
ENDBRANCH  34  35
BRANCH  34  37
ATOM     37  C   UNL     1      -7.889  15.786  24.041  1.00  0.00    +0.000 C 
BRANCH  37  38
ATOM     38  C   UNL     1      -7.434  16.586  22.810  1.00  0.00    +0.000 C 
BRANCH  38  39
ATOM     39  O   UNL     1      -7.879  17.939  22.945  1.00  0.00    +0.000 OA
ATOM     40  H   UNL     1      -7.920  18.124  23.905  1.00  0.00    +0.000 HD
ENDBRANCH  38  39
BRANCH  38  41
ATOM     41  C   UNL     1      -7.897  16.005  21.475  1.00  0.00    +0.000 C 
BRANCH  41  42
ATOM     42  C   UNL     1      -8.603  17.055  20.667  1.00  0.00    +0.000 C 
ATOM     43  O   UNL     1      -8.080  17.876  19.929  1.00  0.00    +0.000 OA
BRANCH  42  44
ATOM     44  O   UNL     1      -9.936  17.051  20.855  1.00  0.00    +0.000 OA
ATOM     45  H   UNL     1     -10.315  17.136  19.957  1.00  0.00    +0.000 HD
ENDBRANCH  42  44
ENDBRANCH  41  42
ENDBRANCH  38  41
ENDBRANCH  37  38
ENDBRANCH  34  37
ENDBRANCH  33  34
ENDBRANCH  32  33
ENDBRANCH   5  32
TORSDOF 15
ENDMDL
MODEL 3
REMARK VINA RESULT:    -8.136      2.290      4.740
REMARK INTER + INTRA:         -18.145
REMARK INTER:                 -15.831
REMARK INTRA:                  -2.314
REMARK UNBOUND:                -3.589
REMARK  Name = 
REMARK  17 active torsions:
REMARK  status: ('A' for Active; 'I' for Inactive)
REMARK    1  A    between atoms: C_1  and  C_2
REMARK    2  A    between atoms: C_2  and  C_3
REMARK    3  A    between atoms: C_2  and  C_4
REMARK    4  A    between atoms: C_5  and  C_6
REMARK    5  A    between atoms: N_8  and  C_9
REMARK    6  A    between atoms: C_15  and  C_16
REMARK    7  A    between atoms: C_22  and  C_23
REMARK    8  A    between atoms: N_30  and  C_31
REMARK    9  A    between atoms: C_31  and  C_32
REMARK   10  A    between atoms: C_32  and  C_33
REMARK   11  A    between atoms: C_33  and  O_34
REMARK   12  A    between atoms: C_33  and  C_35
REMARK   13  A    between atoms: C_35  and  C_36
REMARK   14  A    between atoms: C_36  and  O_37
REMARK   15  A    between atoms: C_36  and  C_38
REMARK   16  A    between atoms: C_38  and  C_39
REMARK   17  A    between atoms: C_39  and  O_41
REMARK                            x       y       z     vdW  Elec       q    Type
REMARK                         _______ _______ _______ _____ _____    ______ ____
ROOT
ATOM      1  C   UNL     1     -12.356  13.495  30.513  1.00  0.00    +0.000 A 
ATOM      2  C   UNL     1     -12.051  13.980  31.795  1.00  0.00    +0.000 A 
ATOM      3  C   UNL     1     -10.952  14.883  31.659  1.00  0.00    +0.000 A 
ATOM      4  C   UNL     1     -10.598  14.934  30.321  1.00  0.00    +0.000 A 
ATOM      5  N   UNL     1     -11.500  14.134  29.617  1.00  0.00    +0.000 N 
ENDROOT
BRANCH   4   6
ATOM      6  C   UNL     1      -9.453  15.623  29.716  1.00  0.00    +0.000 A 
ATOM      7  C   UNL     1      -9.539  16.992  29.424  1.00  0.00    +0.000 A 
ATOM      8  C   UNL     1      -8.460  17.655  28.838  1.00  0.00    +0.000 A 
ATOM      9  C   UNL     1      -7.302  16.947  28.539  1.00  0.00    +0.000 A 
ATOM     10  F   UNL     1      -6.266  17.583  27.977  1.00  0.00    +0.000 F 
ATOM     11  C   UNL     1      -7.203  15.587  28.812  1.00  0.00    +0.000 A 
ATOM     12  C   UNL     1      -8.283  14.922  29.397  1.00  0.00    +0.000 A 
ENDBRANCH   4   6
BRANCH   3  13
ATOM     13  C   UNL     1     -10.193  15.550  32.708  1.00  0.00    +0.000 A 
ATOM     14  C   UNL     1     -10.815  15.877  33.918  1.00  0.00    +0.000 A 
ATOM     15  C   UNL     1     -10.103  16.547  34.913  1.00  0.00    +0.000 A 
ATOM     16  C   UNL     1      -8.769  16.895  34.705  1.00  0.00    +0.000 A 
ATOM     17  C   UNL     1      -8.145  16.576  33.499  1.00  0.00    +0.000 A 
ATOM     18  C   UNL     1      -8.855  15.908  32.499  1.00  0.00    +0.000 A 
ENDBRANCH   3  13
BRANCH   2  19
ATOM     19  C   UNL     1     -12.731  13.591  33.048  1.00  0.00    +0.000 C 
ATOM     20  O   UNL     1     -13.830  14.044  33.346  1.00  0.00    +0.000 OA
ATOM     21  N   UNL     1     -11.990  12.710  33.813  1.00  0.00    +0.000 N 
ATOM     22  H   UNL     1     -11.094  12.442  33.432  1.00  0.00    +0.000 HD
BRANCH  21  23
ATOM     23  C   UNL     1     -12.333  12.126  35.047  1.00  0.00    +0.000 A 
ATOM     24  C   UNL     1     -13.069  10.934  35.003  1.00  0.00    +0.000 A 
ATOM     25  C   UNL     1     -13.449  10.285  36.180  1.00  0.00    +0.000 A 
ATOM     26  C   UNL     1     -13.100  10.824  37.415  1.00  0.00    +0.000 A 
ATOM     27  C   UNL     1     -12.371  12.009  37.470  1.00  0.00    +0.000 A 
ATOM     28  C   UNL     1     -11.988  12.658  36.290  1.00  0.00    +0.000 A 
ENDBRANCH  21  23
ENDBRANCH   2  19
BRANCH   1  30
ATOM     29  C   UNL     1     -13.114  11.099  30.764  1.00  0.00    +0.000 C 
ATOM     30  C   UNL     1     -13.455  12.480  30.200  1.00  0.00    +0.000 C 
ATOM     31  C   UNL     1     -14.891  12.882  30.512  1.00  0.00    +0.000 C 
ENDBRANCH   1  30
BRANCH   5  32
ATOM     32  C   UNL     1     -11.449  13.978  28.166  1.00  0.00    +0.000 C 
BRANCH  32  33
ATOM     33  C   UNL     1     -11.898  15.195  27.353  1.00  0.00    +0.000 C 
BRANCH  33  34
ATOM     34  C   UNL     1     -10.975  15.558  26.188  1.00  0.00    +0.000 C 
BRANCH  34  35
ATOM     35  O   UNL     1     -10.647  16.946  26.223  1.00  0.00    +0.000 OA
ATOM     36  H   UNL     1     -10.954  17.313  27.069  1.00  0.00    +0.000 HD
ENDBRANCH  34  35
BRANCH  34  37
ATOM     37  C   UNL     1      -9.666  14.748  26.154  1.00  0.00    +0.000 C 
BRANCH  37  38
ATOM     38  C   UNL     1      -8.734  14.921  24.943  1.00  0.00    +0.000 C 
BRANCH  38  39
ATOM     39  O   UNL     1      -7.950  16.103  25.125  1.00  0.00    +0.000 OA
ATOM     40  H   UNL     1      -8.160  16.442  26.018  1.00  0.00    +0.000 HD
ENDBRANCH  38  39
BRANCH  38  41
ATOM     41  C   UNL     1      -9.456  14.963  23.596  1.00  0.00    +0.000 C 
BRANCH  41  42
ATOM     42  C   UNL     1      -8.469  15.178  22.485  1.00  0.00    +0.000 C 
ATOM     43  O   UNL     1      -8.693  15.709  21.408  1.00  0.00    +0.000 OA
BRANCH  42  44
ATOM     44  O   UNL     1      -7.251  14.678  22.765  1.00  0.00    +0.000 OA
ATOM     45  H   UNL     1      -7.015  15.067  23.631  1.00  0.00    +0.000 HD
ENDBRANCH  42  44
ENDBRANCH  41  42
ENDBRANCH  38  41
ENDBRANCH  37  38
ENDBRANCH  34  37
ENDBRANCH  33  34
ENDBRANCH  32  33
ENDBRANCH   5  32
TORSDOF 15
ENDMDL
MODEL 4
REMARK VINA RESULT:    -8.100      2.436      8.611
REMARK INTER + INTRA:         -18.080
REMARK INTER:                 -14.659
REMARK INTRA:                  -3.421
REMARK UNBOUND:                -3.589
REMARK  Name = 
REMARK  17 active torsions:
REMARK  status: ('A' for Active; 'I' for Inactive)
REMARK    1  A    between atoms: C_1  and  C_2
REMARK    2  A    between atoms: C_2  and  C_3
REMARK    3  A    between atoms: C_2  and  C_4
REMARK    4  A    between atoms: C_5  and  C_6
REMARK    5  A    between atoms: N_8  and  C_9
REMARK    6  A    between atoms: C_15  and  C_16
REMARK    7  A    between atoms: C_22  and  C_23
REMARK    8  A    between atoms: N_30  and  C_31
REMARK    9  A    between atoms: C_31  and  C_32
REMARK   10  A    between atoms: C_32  and  C_33
REMARK   11  A    between atoms: C_33  and  O_34
REMARK   12  A    between atoms: C_33  and  C_35
REMARK   13  A    between atoms: C_35  and  C_36
REMARK   14  A    between atoms: C_36  and  O_37
REMARK   15  A    between atoms: C_36  and  C_38
REMARK   16  A    between atoms: C_38  and  C_39
REMARK   17  A    between atoms: C_39  and  O_41
REMARK                            x       y       z     vdW  Elec       q    Type
REMARK                         _______ _______ _______ _____ _____    ______ ____
ROOT
ATOM      1  C   UNL     1      -9.067  16.001  30.147  1.00  0.00    +0.000 A 
ATOM      2  C   UNL     1      -8.755  16.282  28.806  1.00  0.00    +0.000 A 
ATOM      3  C   UNL     1      -9.719  15.609  27.994  1.00  0.00    +0.000 A 
ATOM      4  C   UNL     1     -10.589  14.929  28.831  1.00  0.00    +0.000 A 
ATOM      5  N   UNL     1     -10.225  15.225  30.145  1.00  0.00    +0.000 N 
ENDROOT
BRANCH   4   6
ATOM      6  C   UNL     1     -11.660  14.000  28.455  1.00  0.00    +0.000 A 
ATOM      7  C   UNL     1     -11.394  12.626  28.376  1.00  0.00    +0.000 A 
ATOM      8  C   UNL     1     -12.403  11.735  28.008  1.00  0.00    +0.000 A 
ATOM      9  C   UNL     1     -13.672  12.220  27.715  1.00  0.00    +0.000 A 
ATOM     10  F   UNL     1     -14.640  11.364  27.363  1.00  0.00    +0.000 F 
ATOM     11  C   UNL     1     -13.951  13.580  27.779  1.00  0.00    +0.000 A 
ATOM     12  C   UNL     1     -12.942  14.473  28.144  1.00  0.00    +0.000 A 
ENDBRANCH   4   6
BRANCH   3  13
ATOM     13  C   UNL     1      -9.754  15.489  26.543  1.00  0.00    +0.000 A 
ATOM     14  C   UNL     1      -8.837  14.659  25.890  1.00  0.00    +0.000 A 
ATOM     15  C   UNL     1      -8.842  14.566  24.498  1.00  0.00    +0.000 A 
ATOM     16  C   UNL     1      -9.761  15.304  23.753  1.00  0.00    +0.000 A 
ATOM     17  C   UNL     1     -10.674  16.138  24.397  1.00  0.00    +0.000 A 
ATOM     18  C   UNL     1     -10.670  16.235  25.790  1.00  0.00    +0.000 A 
ENDBRANCH   3  13
BRANCH   2  19
ATOM     19  C   UNL     1      -7.616  17.099  28.340  1.00  0.00    +0.000 C 
ATOM     20  O   UNL     1      -7.567  18.306  28.547  1.00  0.00    +0.000 OA
ATOM     21  N   UNL     1      -6.669  16.362  27.653  1.00  0.00    +0.000 N 
ATOM     22  H   UNL     1      -6.864  15.376  27.555  1.00  0.00    +0.000 HD
BRANCH  21  23
ATOM     23  C   UNL     1      -5.461  16.809  27.085  1.00  0.00    +0.000 A 
ATOM     24  C   UNL     1      -5.481  17.130  25.722  1.00  0.00    +0.000 A 
ATOM     25  C   UNL     1      -4.327  17.584  25.077  1.00  0.00    +0.000 A 
ATOM     26  C   UNL     1      -3.140  17.720  25.791  1.00  0.00    +0.000 A 
ATOM     27  C   UNL     1      -3.109  17.402  27.147  1.00  0.00    +0.000 A 
ATOM     28  C   UNL     1      -4.266  16.949  27.792  1.00  0.00    +0.000 A 
ENDBRANCH  21  23
ENDBRANCH   2  19
BRANCH   1  30
ATOM     29  C   UNL     1      -8.801  17.856  31.839  1.00  0.00    +0.000 C 
ATOM     30  C   UNL     1      -8.274  16.504  31.353  1.00  0.00    +0.000 C 
ATOM     31  C   UNL     1      -8.057  15.532  32.505  1.00  0.00    +0.000 C 
ENDBRANCH   1  30
BRANCH   5  32
ATOM     32  C   UNL     1     -10.950  14.704  31.301  1.00  0.00    +0.000 C 
BRANCH  32  33
ATOM     33  C   UNL     1     -12.250  15.434  31.651  1.00  0.00    +0.000 C 
BRANCH  33  34
ATOM     34  C   UNL     1     -12.818  15.095  33.030  1.00  0.00    +0.000 C 
BRANCH  34  35
ATOM     35  O   UNL     1     -14.244  15.128  33.006  1.00  0.00    +0.000 OA
ATOM     36  H   UNL     1     -14.525  15.930  32.533  1.00  0.00    +0.000 HD
ENDBRANCH  34  35
BRANCH  34  37
ATOM     37  C   UNL     1     -12.372  13.723  33.569  1.00  0.00    +0.000 C 
BRANCH  37  38
ATOM     38  C   UNL     1     -11.885  13.637  35.025  1.00  0.00    +0.000 C 
BRANCH  38  39
ATOM     39  O   UNL     1     -12.886  14.192  35.882  1.00  0.00    +0.000 OA
ATOM     40  H   UNL     1     -13.751  13.926  35.511  1.00  0.00    +0.000 HD
ENDBRANCH  38  39
BRANCH  38  41
ATOM     41  C   UNL     1     -10.535  14.307  35.278  1.00  0.00    +0.000 C 
BRANCH  41  42
ATOM     42  C   UNL     1     -10.734  15.648  35.925  1.00  0.00    +0.000 C 
ATOM     43  O   UNL     1     -10.855  16.719  35.353  1.00  0.00    +0.000 OA
BRANCH  42  44
ATOM     44  O   UNL     1     -10.734  15.583  37.270  1.00  0.00    +0.000 OA
ATOM     45  H   UNL     1     -11.670  15.708  37.526  1.00  0.00    +0.000 HD
ENDBRANCH  42  44
ENDBRANCH  41  42
ENDBRANCH  38  41
ENDBRANCH  37  38
ENDBRANCH  34  37
ENDBRANCH  33  34
ENDBRANCH  32  33
ENDBRANCH   5  32
TORSDOF 15
ENDMDL
MODEL 5
REMARK VINA RESULT:    -7.674      3.014     10.259
REMARK INTER + INTRA:         -17.319
REMARK INTER:                 -13.288
REMARK INTRA:                  -4.031
REMARK UNBOUND:                -3.589
REMARK  Name = 
REMARK  17 active torsions:
REMARK  status: ('A' for Active; 'I' for Inactive)
REMARK    1  A    between atoms: C_1  and  C_2
REMARK    2  A    between atoms: C_2  and  C_3
REMARK    3  A    between atoms: C_2  and  C_4
REMARK    4  A    between atoms: C_5  and  C_6
REMARK    5  A    between atoms: N_8  and  C_9
REMARK    6  A    between atoms: C_15  and  C_16
REMARK    7  A    between atoms: C_22  and  C_23
REMARK    8  A    between atoms: N_30  and  C_31
REMARK    9  A    between atoms: C_31  and  C_32
REMARK   10  A    between atoms: C_32  and  C_33
REMARK   11  A    between atoms: C_33  and  O_34
REMARK   12  A    between atoms: C_33  and  C_35
REMARK   13  A    between atoms: C_35  and  C_36
REMARK   14  A    between atoms: C_36  and  O_37
REMARK   15  A    between atoms: C_36  and  C_38
REMARK   16  A    between atoms: C_38  and  C_39
REMARK   17  A    between atoms: C_39  and  O_41
REMARK                            x       y       z     vdW  Elec       q    Type
REMARK                         _______ _______ _______ _____ _____    ______ ____
ROOT
ATOM      1  C   UNL     1      -9.607  15.605  24.709  1.00  0.00    +0.000 A 
ATOM      2  C   UNL     1      -8.470  16.422  24.593  1.00  0.00    +0.000 A 
ATOM      3  C   UNL     1      -7.965  16.640  25.912  1.00  0.00    +0.000 A 
ATOM      4  C   UNL     1      -8.788  15.973  26.805  1.00  0.00    +0.000 A 
ATOM      5  N   UNL     1      -9.751  15.291  26.060  1.00  0.00    +0.000 N 
ENDROOT
BRANCH   4   6
ATOM      6  C   UNL     1      -8.744  16.008  28.271  1.00  0.00    +0.000 A 
ATOM      7  C   UNL     1      -8.123  14.966  28.973  1.00  0.00    +0.000 A 
ATOM      8  C   UNL     1      -8.085  14.982  30.368  1.00  0.00    +0.000 A 
ATOM      9  C   UNL     1      -8.674  16.037  31.056  1.00  0.00    +0.000 A 
ATOM     10  F   UNL     1      -8.637  16.053  32.395  1.00  0.00    +0.000 F 
ATOM     11  C   UNL     1      -9.304  17.073  30.376  1.00  0.00    +0.000 A 
ATOM     12  C   UNL     1      -9.344  17.056  28.980  1.00  0.00    +0.000 A 
ENDBRANCH   4   6
BRANCH   3  13
ATOM     13  C   UNL     1      -6.879  17.515  26.332  1.00  0.00    +0.000 A 
ATOM     14  C   UNL     1      -5.571  17.022  26.388  1.00  0.00    +0.000 A 
ATOM     15  C   UNL     1      -4.530  17.844  26.823  1.00  0.00    +0.000 A 
ATOM     16  C   UNL     1      -4.793  19.158  27.207  1.00  0.00    +0.000 A 
ATOM     17  C   UNL     1      -6.095  19.653  27.159  1.00  0.00    +0.000 A 
ATOM     18  C   UNL     1      -7.139  18.833  26.726  1.00  0.00    +0.000 A 
ENDBRANCH   3  13
BRANCH   2  19
ATOM     19  C   UNL     1      -7.930  16.972  23.332  1.00  0.00    +0.000 C 
ATOM     20  O   UNL     1      -7.890  18.178  23.126  1.00  0.00    +0.000 OA
ATOM     21  N   UNL     1      -7.518  15.991  22.450  1.00  0.00    +0.000 N 
ATOM     22  H   UNL     1      -7.631  15.038  22.765  1.00  0.00    +0.000 HD
BRANCH  21  23
ATOM     23  C   UNL     1      -6.947  16.152  21.173  1.00  0.00    +0.000 A 
ATOM     24  C   UNL     1      -7.819  16.466  20.123  1.00  0.00    +0.000 A 
ATOM     25  C   UNL     1      -7.338  16.647  18.823  1.00  0.00    +0.000 A 
ATOM     26  C   UNL     1      -5.978  16.512  18.561  1.00  0.00    +0.000 A 
ATOM     27  C   UNL     1      -5.102  16.197  19.598  1.00  0.00    +0.000 A 
ATOM     28  C   UNL     1      -5.585  16.019  20.900  1.00  0.00    +0.000 A 
ENDBRANCH  21  23
ENDBRANCH   2  19
BRANCH   1  30
ATOM     29  C   UNL     1     -10.919  16.326  22.676  1.00  0.00    +0.000 C 
ATOM     30  C   UNL     1     -10.476  15.143  23.540  1.00  0.00    +0.000 C 
ATOM     31  C   UNL     1      -9.959  13.985  22.696  1.00  0.00    +0.000 C 
ENDBRANCH   1  30
BRANCH   5  32
ATOM     32  C   UNL     1     -10.772  14.448  26.675  1.00  0.00    +0.000 C 
BRANCH  32  33
ATOM     33  C   UNL     1     -12.003  15.184  27.213  1.00  0.00    +0.000 C 
BRANCH  33  34
ATOM     34  C   UNL     1     -12.459  14.731  28.601  1.00  0.00    +0.000 C 
BRANCH  34  35
ATOM     35  O   UNL     1     -13.729  14.085  28.525  1.00  0.00    +0.000 OA
ATOM     36  H   UNL     1     -13.784  13.432  29.243  1.00  0.00    +0.000 HD
ENDBRANCH  34  35
BRANCH  34  37
ATOM     37  C   UNL     1     -11.471  13.783  29.304  1.00  0.00    +0.000 C 
BRANCH  37  38
ATOM     38  C   UNL     1     -11.671  13.504  30.803  1.00  0.00    +0.000 C 
BRANCH  38  39
ATOM     39  O   UNL     1     -12.565  12.399  30.954  1.00  0.00    +0.000 OA
ATOM     40  H   UNL     1     -13.386  12.755  31.349  1.00  0.00    +0.000 HD
ENDBRANCH  38  39
BRANCH  38  41
ATOM     41  C   UNL     1     -12.170  14.706  31.605  1.00  0.00    +0.000 C 
BRANCH  41  42
ATOM     42  C   UNL     1     -13.509  14.404  32.215  1.00  0.00    +0.000 C 
ATOM     43  O   UNL     1     -13.710  13.907  33.311  1.00  0.00    +0.000 OA
BRANCH  42  44
ATOM     44  O   UNL     1     -14.535  14.707  31.397  1.00  0.00    +0.000 OA
ATOM     45  H   UNL     1     -14.780  15.624  31.636  1.00  0.00    +0.000 HD
ENDBRANCH  42  44
ENDBRANCH  41  42
ENDBRANCH  38  41
ENDBRANCH  37  38
ENDBRANCH  34  37
ENDBRANCH  33  34
ENDBRANCH  32  33
ENDBRANCH   5  32
TORSDOF 15
ENDMDL
MODEL 6
REMARK VINA RESULT:    -7.647      2.699      5.621
REMARK INTER + INTRA:         -17.271
REMARK INTER:                 -14.183
REMARK INTRA:                  -3.088
REMARK UNBOUND:                -3.589
REMARK  Name = 
REMARK  17 active torsions:
REMARK  status: ('A' for Active; 'I' for Inactive)
REMARK    1  A    between atoms: C_1  and  C_2
REMARK    2  A    between atoms: C_2  and  C_3
REMARK    3  A    between atoms: C_2  and  C_4
REMARK    4  A    between atoms: C_5  and  C_6
REMARK    5  A    between atoms: N_8  and  C_9
REMARK    6  A    between atoms: C_15  and  C_16
REMARK    7  A    between atoms: C_22  and  C_23
REMARK    8  A    between atoms: N_30  and  C_31
REMARK    9  A    between atoms: C_31  and  C_32
REMARK   10  A    between atoms: C_32  and  C_33
REMARK   11  A    between atoms: C_33  and  O_34
REMARK   12  A    between atoms: C_33  and  C_35
REMARK   13  A    between atoms: C_35  and  C_36
REMARK   14  A    between atoms: C_36  and  O_37
REMARK   15  A    between atoms: C_36  and  C_38
REMARK   16  A    between atoms: C_38  and  C_39
REMARK   17  A    between atoms: C_39  and  O_41
REMARK                            x       y       z     vdW  Elec       q    Type
REMARK                         _______ _______ _______ _____ _____    ______ ____
ROOT
ATOM      1  C   UNL     1     -13.089  12.180  31.627  1.00  0.00    +0.000 A 
ATOM      2  C   UNL     1     -12.831  12.587  32.947  1.00  0.00    +0.000 A 
ATOM      3  C   UNL     1     -11.949  13.708  32.883  1.00  0.00    +0.000 A 
ATOM      4  C   UNL     1     -11.674  13.966  31.550  1.00  0.00    +0.000 A 
ATOM      5  N   UNL     1     -12.424  13.071  30.786  1.00  0.00    +0.000 N 
ENDROOT
BRANCH   4   6
ATOM      6  C   UNL     1     -10.724  14.936  30.996  1.00  0.00    +0.000 A 
ATOM      7  C   UNL     1      -9.391  14.559  30.778  1.00  0.00    +0.000 A 
ATOM      8  C   UNL     1      -8.476  15.477  30.262  1.00  0.00    +0.000 A 
ATOM      9  C   UNL     1      -8.893  16.771  29.973  1.00  0.00    +0.000 A 
ATOM     10  F   UNL     1      -8.014  17.652  29.477  1.00  0.00    +0.000 F 
ATOM     11  C   UNL     1     -10.207  17.166  30.193  1.00  0.00    +0.000 A 
ATOM     12  C   UNL     1     -11.124  16.248  30.711  1.00  0.00    +0.000 A 
ENDBRANCH   4   6
BRANCH   3  13
ATOM     13  C   UNL     1     -11.295  14.409  33.980  1.00  0.00    +0.000 A 
ATOM     14  C   UNL     1     -11.020  15.776  33.866  1.00  0.00    +0.000 A 
ATOM     15  C   UNL     1     -10.362  16.446  34.898  1.00  0.00    +0.000 A 
ATOM     16  C   UNL     1      -9.974  15.755  36.045  1.00  0.00    +0.000 A 
ATOM     17  C   UNL     1     -10.241  14.391  36.162  1.00  0.00    +0.000 A 
ATOM     18  C   UNL     1     -10.897  13.716  35.129  1.00  0.00    +0.000 A 
ENDBRANCH   3  13
BRANCH   2  19
ATOM     19  C   UNL     1     -13.360  11.940  34.166  1.00  0.00    +0.000 C 
ATOM     20  O   UNL     1     -14.369  12.354  34.723  1.00  0.00    +0.000 OA
ATOM     21  N   UNL     1     -12.589  10.873  34.587  1.00  0.00    +0.000 N 
ATOM     22  H   UNL     1     -11.777  10.666  34.024  1.00  0.00    +0.000 HD
BRANCH  21  23
ATOM     23  C   UNL     1     -12.801  10.027  35.693  1.00  0.00    +0.000 A 
ATOM     24  C   UNL     1     -12.015  10.260  36.829  1.00  0.00    +0.000 A 
ATOM     25  C   UNL     1     -12.162   9.472  37.973  1.00  0.00    +0.000 A 
ATOM     26  C   UNL     1     -13.094   8.438  37.991  1.00  0.00    +0.000 A 
ATOM     27  C   UNL     1     -13.879   8.197  36.865  1.00  0.00    +0.000 A 
ATOM     28  C   UNL     1     -13.733   8.989  35.721  1.00  0.00    +0.000 A 
ENDBRANCH  21  23
ENDBRANCH   2  19
BRANCH   1  30
ATOM     29  C   UNL     1     -13.236   9.667  31.430  1.00  0.00    +0.000 C 
ATOM     30  C   UNL     1     -13.970  10.995  31.233  1.00  0.00    +0.000 C 
ATOM     31  C   UNL     1     -15.384  10.952  31.798  1.00  0.00    +0.000 C 
ENDBRANCH   1  30
BRANCH   5  32
ATOM     32  C   UNL     1     -12.409  13.075  29.326  1.00  0.00    +0.000 C 
BRANCH  32  33
ATOM     33  C   UNL     1     -13.425  14.005  28.656  1.00  0.00    +0.000 C 
BRANCH  33  34
ATOM     34  C   UNL     1     -12.821  14.999  27.662  1.00  0.00    +0.000 C 
BRANCH  34  35
ATOM     35  O   UNL     1     -12.919  16.331  28.164  1.00  0.00    +0.000 OA
ATOM     36  H   UNL     1     -12.519  16.355  29.050  1.00  0.00    +0.000 HD
ENDBRANCH  34  35
BRANCH  34  37
ATOM     37  C   UNL     1     -11.348  14.717  27.316  1.00  0.00    +0.000 C 
BRANCH  37  38
ATOM     38  C   UNL     1     -10.494  15.873  26.770  1.00  0.00    +0.000 C 
BRANCH  38  39
ATOM     39  O   UNL     1     -11.204  16.511  25.705  1.00  0.00    +0.000 OA
ATOM     40  H   UNL     1     -11.093  15.944  24.916  1.00  0.00    +0.000 HD
ENDBRANCH  38  39
BRANCH  38  41
ATOM     41  C   UNL     1      -9.098  15.459  26.305  1.00  0.00    +0.000 C 
BRANCH  41  42
ATOM     42  C   UNL     1      -8.154  16.624  26.391  1.00  0.00    +0.000 C 
ATOM     43  O   UNL     1      -6.955  16.572  26.614  1.00  0.00    +0.000 OA
BRANCH  42  44
ATOM     44  O   UNL     1      -8.773  17.809  26.231  1.00  0.00    +0.000 OA
ATOM     45  H   UNL     1      -8.050  18.469  26.225  1.00  0.00    +0.000 HD
ENDBRANCH  42  44
ENDBRANCH  41  42
ENDBRANCH  38  41
ENDBRANCH  37  38
ENDBRANCH  34  37
ENDBRANCH  33  34
ENDBRANCH  32  33
ENDBRANCH   5  32
TORSDOF 15
ENDMDL
MODEL 7
REMARK VINA RESULT:    -7.579      3.438     10.804
REMARK INTER + INTRA:         -17.149
REMARK INTER:                 -13.305
REMARK INTRA:                  -3.844
REMARK UNBOUND:                -3.589
REMARK  Name = 
REMARK  17 active torsions:
REMARK  status: ('A' for Active; 'I' for Inactive)
REMARK    1  A    between atoms: C_1  and  C_2
REMARK    2  A    between atoms: C_2  and  C_3
REMARK    3  A    between atoms: C_2  and  C_4
REMARK    4  A    between atoms: C_5  and  C_6
REMARK    5  A    between atoms: N_8  and  C_9
REMARK    6  A    between atoms: C_15  and  C_16
REMARK    7  A    between atoms: C_22  and  C_23
REMARK    8  A    between atoms: N_30  and  C_31
REMARK    9  A    between atoms: C_31  and  C_32
REMARK   10  A    between atoms: C_32  and  C_33
REMARK   11  A    between atoms: C_33  and  O_34
REMARK   12  A    between atoms: C_33  and  C_35
REMARK   13  A    between atoms: C_35  and  C_36
REMARK   14  A    between atoms: C_36  and  O_37
REMARK   15  A    between atoms: C_36  and  C_38
REMARK   16  A    between atoms: C_38  and  C_39
REMARK   17  A    between atoms: C_39  and  O_41
REMARK                            x       y       z     vdW  Elec       q    Type
REMARK                         _______ _______ _______ _____ _____    ______ ____
ROOT
ATOM      1  C   UNL     1      -8.553  16.093  23.305  1.00  0.00    +0.000 A 
ATOM      2  C   UNL     1      -7.352  16.821  23.277  1.00  0.00    +0.000 A 
ATOM      3  C   UNL     1      -6.915  16.975  24.628  1.00  0.00    +0.000 A 
ATOM      4  C   UNL     1      -7.841  16.358  25.454  1.00  0.00    +0.000 A 
ATOM      5  N   UNL     1      -8.804  15.765  24.637  1.00  0.00    +0.000 N 
ENDROOT
BRANCH   4   6
ATOM      6  C   UNL     1      -7.885  16.362  26.920  1.00  0.00    +0.000 A 
ATOM      7  C   UNL     1      -7.547  15.202  27.630  1.00  0.00    +0.000 A 
ATOM      8  C   UNL     1      -7.598  15.191  29.025  1.00  0.00    +0.000 A 
ATOM      9  C   UNL     1      -7.992  16.337  29.704  1.00  0.00    +0.000 A 
ATOM     10  F   UNL     1      -8.040  16.327  31.043  1.00  0.00    +0.000 F 
ATOM     11  C   UNL     1      -8.342  17.493  29.016  1.00  0.00    +0.000 A 
ATOM     12  C   UNL     1      -8.293  17.505  27.621  1.00  0.00    +0.000 A 
ENDBRANCH   4   6
BRANCH   3  13
ATOM     13  C   UNL     1      -5.794  17.755  25.133  1.00  0.00    +0.000 A 
ATOM     14  C   UNL     1      -5.911  19.144  25.257  1.00  0.00    +0.000 A 
ATOM     15  C   UNL     1      -4.829  19.901  25.707  1.00  0.00    +0.000 A 
ATOM     16  C   UNL     1      -3.626  19.275  26.032  1.00  0.00    +0.000 A 
ATOM     17  C   UNL     1      -3.501  17.892  25.906  1.00  0.00    +0.000 A 
ATOM     18  C   UNL     1      -4.581  17.132  25.453  1.00  0.00    +0.000 A 
ENDBRANCH   3  13
BRANCH   2  19
ATOM     19  C   UNL     1      -6.694  17.350  22.064  1.00  0.00    +0.000 C 
ATOM     20  O   UNL     1      -7.163  18.296  21.443  1.00  0.00    +0.000 OA
ATOM     21  N   UNL     1      -5.548  16.656  21.726  1.00  0.00    +0.000 N 
ATOM     22  H   UNL     1      -5.301  15.889  22.336  1.00  0.00    +0.000 HD
BRANCH  21  23
ATOM     23  C   UNL     1      -4.671  16.892  20.650  1.00  0.00    +0.000 A 
ATOM     24  C   UNL     1      -4.701  15.970  19.595  1.00  0.00    +0.000 A 
ATOM     25  C   UNL     1      -3.867  16.129  18.485  1.00  0.00    +0.000 A 
ATOM     26  C   UNL     1      -2.992  17.210  18.421  1.00  0.00    +0.000 A 
ATOM     27  C   UNL     1      -2.955  18.130  19.466  1.00  0.00    +0.000 A 
ATOM     28  C   UNL     1      -3.792  17.972  20.576  1.00  0.00    +0.000 A 
ENDBRANCH  21  23
ENDBRANCH   2  19
BRANCH   1  30
ATOM     29  C   UNL     1     -10.588  16.647  21.915  1.00  0.00    +0.000 C 
ATOM     30  C   UNL     1      -9.380  15.721  22.074  1.00  0.00    +0.000 C 
ATOM     31  C   UNL     1      -8.635  15.528  20.760  1.00  0.00    +0.000 C 
ENDBRANCH   1  30
BRANCH   5  32
ATOM     32  C   UNL     1      -9.923  14.993  25.169  1.00  0.00    +0.000 C 
BRANCH  32  33
ATOM     33  C   UNL     1     -11.016  15.806  25.870  1.00  0.00    +0.000 C 
BRANCH  33  34
ATOM     34  C   UNL     1     -11.323  15.359  27.300  1.00  0.00    +0.000 C 
BRANCH  34  35
ATOM     35  O   UNL     1     -12.708  15.539  27.594  1.00  0.00    +0.000 OA
ATOM     36  H   UNL     1     -13.152  14.677  27.519  1.00  0.00    +0.000 HD
ENDBRANCH  34  35
BRANCH  34  37
ATOM     37  C   UNL     1     -10.950  13.894  27.589  1.00  0.00    +0.000 C 
BRANCH  37  38
ATOM     38  C   UNL     1     -11.341  13.298  28.952  1.00  0.00    +0.000 C 
BRANCH  38  39
ATOM     39  O   UNL     1     -12.752  13.066  28.969  1.00  0.00    +0.000 OA
ATOM     40  H   UNL     1     -12.993  12.879  29.898  1.00  0.00    +0.000 HD
ENDBRANCH  38  39
BRANCH  38  41
ATOM     41  C   UNL     1     -10.927  14.149  30.153  1.00  0.00    +0.000 C 
BRANCH  41  42
ATOM     42  C   UNL     1     -12.124  14.465  31.003  1.00  0.00    +0.000 C 
ATOM     43  O   UNL     1     -12.532  13.814  31.951  1.00  0.00    +0.000 OA
BRANCH  42  44
ATOM     44  O   UNL     1     -12.776  15.571  30.595  1.00  0.00    +0.000 OA
ATOM     45  H   UNL     1     -12.714  15.551  29.619  1.00  0.00    +0.000 HD
ENDBRANCH  42  44
ENDBRANCH  41  42
ENDBRANCH  38  41
ENDBRANCH  37  38
ENDBRANCH  34  37
ENDBRANCH  33  34
ENDBRANCH  32  33
ENDBRANCH   5  32
TORSDOF 15
ENDMDL
MODEL 8
REMARK VINA RESULT:    -7.516      1.910      4.385
REMARK INTER + INTRA:         -17.036
REMARK INTER:                 -14.640
REMARK INTRA:                  -2.396
REMARK UNBOUND:                -3.589
REMARK  Name = 
REMARK  17 active torsions:
REMARK  status: ('A' for Active; 'I' for Inactive)
REMARK    1  A    between atoms: C_1  and  C_2
REMARK    2  A    between atoms: C_2  and  C_3
REMARK    3  A    between atoms: C_2  and  C_4
REMARK    4  A    between atoms: C_5  and  C_6
REMARK    5  A    between atoms: N_8  and  C_9
REMARK    6  A    between atoms: C_15  and  C_16
REMARK    7  A    between atoms: C_22  and  C_23
REMARK    8  A    between atoms: N_30  and  C_31
REMARK    9  A    between atoms: C_31  and  C_32
REMARK   10  A    between atoms: C_32  and  C_33
REMARK   11  A    between atoms: C_33  and  O_34
REMARK   12  A    between atoms: C_33  and  C_35
REMARK   13  A    between atoms: C_35  and  C_36
REMARK   14  A    between atoms: C_36  and  O_37
REMARK   15  A    between atoms: C_36  and  C_38
REMARK   16  A    between atoms: C_38  and  C_39
REMARK   17  A    between atoms: C_39  and  O_41
REMARK                            x       y       z     vdW  Elec       q    Type
REMARK                         _______ _______ _______ _____ _____    ______ ____
ROOT
ATOM      1  C   UNL     1     -12.454  13.955  29.359  1.00  0.00    +0.000 A 
ATOM      2  C   UNL     1     -12.263  14.277  30.713  1.00  0.00    +0.000 A 
ATOM      3  C   UNL     1     -11.052  15.029  30.806  1.00  0.00    +0.000 A 
ATOM      4  C   UNL     1     -10.521  15.151  29.532  1.00  0.00    +0.000 A 
ATOM      5  N   UNL     1     -11.414  14.549  28.645  1.00  0.00    +0.000 N 
ENDROOT
BRANCH   4   6
ATOM      6  C   UNL     1      -9.229  15.727  29.145  1.00  0.00    +0.000 A 
ATOM      7  C   UNL     1      -9.055  17.119  29.159  1.00  0.00    +0.000 A 
ATOM      8  C   UNL     1      -7.834  17.679  28.781  1.00  0.00    +0.000 A 
ATOM      9  C   UNL     1      -6.793  16.848  28.385  1.00  0.00    +0.000 A 
ATOM     10  F   UNL     1      -5.621  17.386  28.023  1.00  0.00    +0.000 F 
ATOM     11  C   UNL     1      -6.951  15.467  28.354  1.00  0.00    +0.000 A 
ATOM     12  C   UNL     1      -8.173  14.906  28.730  1.00  0.00    +0.000 A 
ENDBRANCH   4   6
BRANCH   3  13
ATOM     13  C   UNL     1     -10.360  15.487  32.003  1.00  0.00    +0.000 A 
ATOM     14  C   UNL     1      -8.962  15.485  32.043  1.00  0.00    +0.000 A 
ATOM     15  C   UNL     1      -8.293  15.889  33.199  1.00  0.00    +0.000 A 
ATOM     16  C   UNL     1      -9.018  16.293  34.319  1.00  0.00    +0.000 A 
ATOM     17  C   UNL     1     -10.412  16.292  34.288  1.00  0.00    +0.000 A 
ATOM     18  C   UNL     1     -11.084  15.886  33.133  1.00  0.00    +0.000 A 
ENDBRANCH   3  13
BRANCH   2  19
ATOM     19  C   UNL     1     -13.146  13.873  31.827  1.00  0.00    +0.000 C 
ATOM     20  O   UNL     1     -14.190  14.469  32.063  1.00  0.00    +0.000 OA
ATOM     21  N   UNL     1     -12.651  12.802  32.546  1.00  0.00    +0.000 N 
ATOM     22  H   UNL     1     -11.766  12.430  32.231  1.00  0.00    +0.000 HD
BRANCH  21  23
ATOM     23  C   UNL     1     -13.231  12.153  33.653  1.00  0.00    +0.000 A 
ATOM     24  C   UNL     1     -13.860  10.925  33.410  1.00  0.00    +0.000 A 
ATOM     25  C   UNL     1     -14.460  10.211  34.451  1.00  0.00    +0.000 A 
ATOM     26  C   UNL     1     -14.438  10.720  35.746  1.00  0.00    +0.000 A 
ATOM     27  C   UNL     1     -13.817  11.941  35.997  1.00  0.00    +0.000 A 
ATOM     28  C   UNL     1     -13.215  12.655  34.955  1.00  0.00    +0.000 A 
ENDBRANCH  21  23
ENDBRANCH   2  19
BRANCH   1  30
ATOM     29  C   UNL     1     -14.611  14.016  28.046  1.00  0.00    +0.000 C 
ATOM     30  C   UNL     1     -13.621  13.134  28.811  1.00  0.00    +0.000 C 
ATOM     31  C   UNL     1     -13.285  11.861  28.045  1.00  0.00    +0.000 C 
ENDBRANCH   1  30
BRANCH   5  32
ATOM     32  C   UNL     1     -11.193  14.519  27.202  1.00  0.00    +0.000 C 
BRANCH  32  33
ATOM     33  C   UNL     1     -11.054  15.885  26.524  1.00  0.00    +0.000 C 
BRANCH  33  34
ATOM     34  C   UNL     1      -9.899  15.986  25.525  1.00  0.00    +0.000 C 
BRANCH  34  35
ATOM     35  O   UNL     1     -10.354  15.696  24.204  1.00  0.00    +0.000 OA
ATOM     36  H   UNL     1      -9.936  16.325  23.591  1.00  0.00    +0.000 HD
ENDBRANCH  34  35
BRANCH  34  37
ATOM     37  C   UNL     1      -9.205  17.360  25.511  1.00  0.00    +0.000 C 
BRANCH  37  38
ATOM     38  C   UNL     1      -8.021  17.567  24.551  1.00  0.00    +0.000 C 
BRANCH  38  39
ATOM     39  O   UNL     1      -7.515  16.289  24.156  1.00  0.00    +0.000 OA
ATOM     40  H   UNL     1      -6.967  16.440  23.360  1.00  0.00    +0.000 HD
ENDBRANCH  38  39
BRANCH  38  41
ATOM     41  C   UNL     1      -6.896  18.433  25.117  1.00  0.00    +0.000 C 
BRANCH  41  42
ATOM     42  C   UNL     1      -5.888  18.741  24.047  1.00  0.00    +0.000 C 
ATOM     43  O   UNL     1      -4.861  18.122  23.820  1.00  0.00    +0.000 OA
BRANCH  42  44
ATOM     44  O   UNL     1      -6.201  19.840  23.336  1.00  0.00    +0.000 OA
ATOM     45  H   UNL     1      -5.999  20.589  23.933  1.00  0.00    +0.000 HD
ENDBRANCH  42  44
ENDBRANCH  41  42
ENDBRANCH  38  41
ENDBRANCH  37  38
ENDBRANCH  34  37
ENDBRANCH  33  34
ENDBRANCH  32  33
ENDBRANCH   5  32
TORSDOF 15
ENDMDL
MODEL 9
REMARK VINA RESULT:    -7.447      3.542      6.595
REMARK INTER + INTRA:         -16.913
REMARK INTER:                 -14.325
REMARK INTRA:                  -2.587
REMARK UNBOUND:                -3.589
REMARK  Name = 
REMARK  17 active torsions:
REMARK  status: ('A' for Active; 'I' for Inactive)
REMARK    1  A    between atoms: C_1  and  C_2
REMARK    2  A    between atoms: C_2  and  C_3
REMARK    3  A    between atoms: C_2  and  C_4
REMARK    4  A    between atoms: C_5  and  C_6
REMARK    5  A    between atoms: N_8  and  C_9
REMARK    6  A    between atoms: C_15  and  C_16
REMARK    7  A    between atoms: C_22  and  C_23
REMARK    8  A    between atoms: N_30  and  C_31
REMARK    9  A    between atoms: C_31  and  C_32
REMARK   10  A    between atoms: C_32  and  C_33
REMARK   11  A    between atoms: C_33  and  O_34
REMARK   12  A    between atoms: C_33  and  C_35
REMARK   13  A    between atoms: C_35  and  C_36
REMARK   14  A    between atoms: C_36  and  O_37
REMARK   15  A    between atoms: C_36  and  C_38
REMARK   16  A    between atoms: C_38  and  C_39
REMARK   17  A    between atoms: C_39  and  O_41
REMARK                            x       y       z     vdW  Elec       q    Type
REMARK                         _______ _______ _______ _____ _____    ______ ____
ROOT
ATOM      1  C   UNL     1     -12.573  13.121  30.771  1.00  0.00    +0.000 A 
ATOM      2  C   UNL     1     -13.049  12.463  31.918  1.00  0.00    +0.000 A 
ATOM      3  C   UNL     1     -12.455  13.099  33.051  1.00  0.00    +0.000 A 
ATOM      4  C   UNL     1     -11.631  14.114  32.594  1.00  0.00    +0.000 A 
ATOM      5  N   UNL     1     -11.757  14.165  31.205  1.00  0.00    +0.000 N 
ENDROOT
BRANCH   4   6
ATOM      6  C   UNL     1     -10.719  14.957  33.375  1.00  0.00    +0.000 A 
ATOM      7  C   UNL     1      -9.353  14.984  33.059  1.00  0.00    +0.000 A 
ATOM      8  C   UNL     1      -8.475  15.773  33.803  1.00  0.00    +0.000 A 
ATOM      9  C   UNL     1      -8.963  16.526  34.864  1.00  0.00    +0.000 A 
ATOM     10  F   UNL     1      -8.120  17.284  35.578  1.00  0.00    +0.000 F 
ATOM     11  C   UNL     1     -10.312  16.503  35.198  1.00  0.00    +0.000 A 
ATOM     12  C   UNL     1     -11.192  15.713  34.456  1.00  0.00    +0.000 A 
ENDBRANCH   4   6
BRANCH   3  13
ATOM     13  C   UNL     1     -12.534  12.709  34.452  1.00  0.00    +0.000 A 
ATOM     14  C   UNL     1     -11.377  12.314  35.132  1.00  0.00    +0.000 A 
ATOM     15  C   UNL     1     -11.452  11.906  36.464  1.00  0.00    +0.000 A 
ATOM     16  C   UNL     1     -12.681  11.888  37.121  1.00  0.00    +0.000 A 
ATOM     17  C   UNL     1     -13.839  12.276  36.448  1.00  0.00    +0.000 A 
ATOM     18  C   UNL     1     -13.768  12.682  35.113  1.00  0.00    +0.000 A 
ENDBRANCH   3  13
BRANCH   2  19
ATOM     19  C   UNL     1     -13.969  11.307  31.928  1.00  0.00    +0.000 C 
ATOM     20  O   UNL     1     -15.178  11.453  32.055  1.00  0.00    +0.000 OA
ATOM     21  N   UNL     1     -13.314  10.096  31.804  1.00  0.00    +0.000 N 
ATOM     22  H   UNL     1     -12.308  10.145  31.722  1.00  0.00    +0.000 HD
BRANCH  21  23
ATOM     23  C   UNL     1     -13.872   8.804  31.763  1.00  0.00    +0.000 A 
ATOM     24  C   UNL     1     -12.976   7.727  31.746  1.00  0.00    +0.000 A 
ATOM     25  C   UNL     1     -13.442   6.410  31.709  1.00  0.00    +0.000 A 
ATOM     26  C   UNL     1     -14.811   6.158  31.684  1.00  0.00    +0.000 A 
ATOM     27  C   UNL     1     -15.709   7.222  31.699  1.00  0.00    +0.000 A 
ATOM     28  C   UNL     1     -15.241   8.540  31.738  1.00  0.00    +0.000 A 
ENDBRANCH  21  23
ENDBRANCH   2  19
BRANCH   1  30
ATOM     29  C   UNL     1     -14.019  13.677  28.777  1.00  0.00    +0.000 C 
ATOM     30  C   UNL     1     -12.938  12.748  29.334  1.00  0.00    +0.000 C 
ATOM     31  C   UNL     1     -11.794  12.551  28.348  1.00  0.00    +0.000 C 
ENDBRANCH   1  30
BRANCH   5  32
ATOM     32  C   UNL     1     -11.053  15.146  30.384  1.00  0.00    +0.000 C 
BRANCH  32  33
ATOM     33  C   UNL     1     -11.785  16.473  30.163  1.00  0.00    +0.000 C 
BRANCH  33  34
ATOM     34  C   UNL     1     -11.664  17.037  28.746  1.00  0.00    +0.000 C 
BRANCH  34  35
ATOM     35  O   UNL     1     -11.364  18.432  28.787  1.00  0.00    +0.000 OA
ATOM     36  H   UNL     1     -11.010  18.695  27.920  1.00  0.00    +0.000 HD
ENDBRANCH  34  35
BRANCH  34  37
ATOM     37  C   UNL     1     -10.600  16.335  27.883  1.00  0.00    +0.000 C 
BRANCH  37  38
ATOM     38  C   UNL     1      -9.266  17.061  27.639  1.00  0.00    +0.000 C 
BRANCH  38  39
ATOM     39  O   UNL     1      -8.760  16.681  26.357  1.00  0.00    +0.000 OA
ATOM     40  H   UNL     1      -7.831  16.408  26.493  1.00  0.00    +0.000 HD
ENDBRANCH  38  39
BRANCH  38  41
ATOM     41  C   UNL     1      -8.212  16.820  28.720  1.00  0.00    +0.000 C 
BRANCH  41  42
ATOM     42  C   UNL     1      -7.308  15.690  28.321  1.00  0.00    +0.000 C 
ATOM     43  O   UNL     1      -7.583  14.501  28.334  1.00  0.00    +0.000 OA
BRANCH  42  44
ATOM     44  O   UNL     1      -6.079  16.108  27.960  1.00  0.00    +0.000 OA
ATOM     45  H   UNL     1      -6.010  17.016  28.318  1.00  0.00    +0.000 HD
ENDBRANCH  42  44
ENDBRANCH  41  42
ENDBRANCH  38  41
ENDBRANCH  37  38
ENDBRANCH  34  37
ENDBRANCH  33  34
ENDBRANCH  32  33
ENDBRANCH   5  32
TORSDOF 15
ENDMDL
