MODEL 1
REMARK VINA RESULT:    -8.059      0.000      0.000
REMARK INTER + INTRA:         -12.952
REMARK INTER:                 -12.063
REMARK INTRA:                  -0.889
REMARK UNBOUND:                -0.889
REMARK  Name = 
REMARK  9 active torsions:
REMARK  status: ('A' for Active; 'I' for Inactive)
REMARK    1  A    between atoms: O_1  and  C_2
REMARK    2  A    between atoms: C_2  and  C_4
REMARK    3  A    between atoms: C_4  and  O_5
REMARK    4  A    between atoms: O_5  and  C_6
REMARK    5  A    between atoms: C_6  and  C_7
REMARK    6  A    between atoms: C_7  and  N_8
REMARK    7  A    between atoms: N_11  and  C_14
REMARK    8  A    between atoms: C_14  and  C_15
REMARK    9  A    between atoms: C_14  and  C_21
REMARK                            x       y       z     vdW  Elec       q    Type
REMARK                         _______ _______ _______ _____ _____    ______ ____
ROOT
ATOM      1  N   UNL     1      -6.843  18.351  27.642  1.00  0.00    +0.000 NA
ATOM      2  C   UNL     1      -6.129  17.072  27.856  1.00  0.00    +0.000 C 
ATOM      3  C   UNL     1      -7.009  15.899  28.373  1.00  0.00    +0.000 C 
ATOM      4  N   UNL     1      -8.145  16.378  29.159  1.00  0.00    +0.000 NA
ATOM      5  C   UNL     1      -9.001  17.270  28.361  1.00  0.00    +0.000 C 
ATOM      6  C   UNL     1      -8.244  18.091  27.279  1.00  0.00    +0.000 C 
ENDROOT
BRANCH   1   7
ATOM      7  C   UNL     1      -6.179  19.203  26.646  1.00  0.00    +0.000 C 
BRANCH   7   8
ATOM      8  C   UNL     1      -4.934  18.559  26.016  1.00  0.00    +0.000 C 
BRANCH   8   9
ATOM      9  O   UNL     1      -4.857  18.957  24.642  1.00  0.00    +0.000 OA
BRANCH   9  10
ATOM     10  C   UNL     1      -5.668  18.154  23.795  1.00  0.00    +0.000 C 
BRANCH  10  11
ATOM     11  C   UNL     1      -6.473  18.896  22.732  1.00  0.00    +0.000 C 
ATOM     12  O   UNL     1      -7.070  18.422  21.779  1.00  0.00    +0.000 OA
BRANCH  11  13
ATOM     13  O   UNL     1      -6.472  20.231  22.934  1.00  0.00    +0.000 OA
ATOM     14  H   UNL     1      -6.224  20.602  22.060  1.00  0.00    +0.000 HD
ENDBRANCH  11  13
ENDBRANCH  10  11
ENDBRANCH   9  10
ENDBRANCH   8   9
ENDBRANCH   7   8
ENDBRANCH   1   7
BRANCH   4  15
ATOM     15  C   UNL     1      -8.888  15.376  29.950  1.00  0.00    +0.000 C 
BRANCH  15  16
ATOM     16  C   UNL     1     -10.280  15.048  29.365  1.00  0.00    +0.000 A 
ATOM     17  C   UNL     1     -11.433  15.713  29.831  1.00  0.00    +0.000 A 
ATOM     18  C   UNL     1     -12.703  15.393  29.339  1.00  0.00    +0.000 A 
ATOM     19  C   UNL     1     -12.844  14.384  28.393  1.00  0.00    +0.000 A 
ATOM     20 CL   UNL     1     -14.407  13.990  27.789  1.00  0.00    +0.000 Cl
ATOM     21  C   UNL     1     -11.731  13.685  27.942  1.00  0.00    +0.000 A 
ATOM     22  C   UNL     1     -10.461  14.007  28.434  1.00  0.00    +0.000 A 
ENDBRANCH  15  16
BRANCH  15  23
ATOM     23  C   UNL     1      -8.878  15.647  31.461  1.00  0.00    +0.000 A 
ATOM     24  C   UNL     1      -9.323  14.692  32.393  1.00  0.00    +0.000 A 
ATOM     25  C   UNL     1      -9.305  14.963  33.763  1.00  0.00    +0.000 A 
ATOM     26  C   UNL     1      -8.842  16.193  34.224  1.00  0.00    +0.000 A 
ATOM     27  C   UNL     1      -8.395  17.150  33.319  1.00  0.00    +0.000 A 
ATOM     28  C   UNL     1      -8.411  16.880  31.948  1.00  0.00    +0.000 A 
ENDBRANCH  15  23
ENDBRANCH   4  15
TORSDOF 9
ENDMDL
MODEL 2
REMARK VINA RESULT:    -7.992      2.596      4.702
REMARK INTER + INTRA:         -12.852
REMARK INTER:                 -12.151
REMARK INTRA:                  -0.701
REMARK UNBOUND:                -0.889
REMARK  Name = 
REMARK  9 active torsions:
REMARK  status: ('A' for Active; 'I' for Inactive)
REMARK    1  A    between atoms: O_1  and  C_2
REMARK    2  A    between atoms: C_2  and  C_4
REMARK    3  A    between atoms: C_4  and  O_5
REMARK    4  A    between atoms: O_5  and  C_6
REMARK    5  A    between atoms: C_6  and  C_7
REMARK    6  A    between atoms: C_7  and  N_8
REMARK    7  A    between atoms: N_11  and  C_14
REMARK    8  A    between atoms: C_14  and  C_15
REMARK    9  A    between atoms: C_14  and  C_21
REMARK                            x       y       z     vdW  Elec       q    Type
REMARK                         _______ _______ _______ _____ _____    ______ ____
ROOT
ATOM      1  N   UNL     1      -8.327  17.334  26.644  1.00  0.00    +0.000 NA
ATOM      2  C   UNL     1      -8.796  15.947  26.431  1.00  0.00    +0.000 C 
ATOM      3  C   UNL     1     -10.110  15.570  27.174  1.00  0.00    +0.000 C 
ATOM      4  N   UNL     1     -10.279  16.343  28.403  1.00  0.00    +0.000 NA
ATOM      5  C   UNL     1     -10.318  17.787  28.117  1.00  0.00    +0.000 C 
ATOM      6  C   UNL     1      -9.473  18.222  26.887  1.00  0.00    +0.000 C 
ENDROOT
BRANCH   1   7
ATOM      7  C   UNL     1      -7.497  17.821  25.533  1.00  0.00    +0.000 C 
BRANCH   7   8
ATOM      8  C   UNL     1      -7.456  16.865  24.330  1.00  0.00    +0.000 C 
BRANCH   8   9
ATOM      9  O   UNL     1      -7.999  17.540  23.189  1.00  0.00    +0.000 OA
BRANCH   9  10
ATOM     10  C   UNL     1      -8.589  16.645  22.256  1.00  0.00    +0.000 C 
BRANCH  10  11
ATOM     11  C   UNL     1      -8.795  17.185  20.843  1.00  0.00    +0.000 C 
ATOM     12  O   UNL     1      -8.074  17.948  20.221  1.00  0.00    +0.000 OA
BRANCH  11  13
ATOM     13  O   UNL     1      -9.935  16.724  20.284  1.00  0.00    +0.000 OA
ATOM     14  H   UNL     1      -9.627  16.058  19.634  1.00  0.00    +0.000 HD
ENDBRANCH  11  13
ENDBRANCH  10  11
ENDBRANCH   9  10
ENDBRANCH   8   9
ENDBRANCH   7   8
ENDBRANCH   1   7
BRANCH   4  15
ATOM     15  C   UNL     1     -11.317  15.887  29.349  1.00  0.00    +0.000 C 
BRANCH  15  16
ATOM     16  C   UNL     1     -10.825  15.829  30.813  1.00  0.00    +0.000 A 
ATOM     17  C   UNL     1     -11.714  15.513  31.862  1.00  0.00    +0.000 A 
ATOM     18  C   UNL     1     -11.288  15.500  33.194  1.00  0.00    +0.000 A 
ATOM     19  C   UNL     1      -9.974  15.830  33.503  1.00  0.00    +0.000 A 
ATOM     20 CL   UNL     1      -9.451  15.817  35.143  1.00  0.00    +0.000 Cl
ATOM     21  C   UNL     1      -9.084  16.183  32.496  1.00  0.00    +0.000 A 
ATOM     22  C   UNL     1      -9.510  16.194  31.163  1.00  0.00    +0.000 A 
ENDBRANCH  15  16
BRANCH  15  23
ATOM     23  C   UNL     1     -12.076  14.637  28.882  1.00  0.00    +0.000 A 
ATOM     24  C   UNL     1     -13.368  14.712  28.329  1.00  0.00    +0.000 A 
ATOM     25  C   UNL     1     -14.038  13.560  27.912  1.00  0.00    +0.000 A 
ATOM     26  C   UNL     1     -13.429  12.314  28.039  1.00  0.00    +0.000 A 
ATOM     27  C   UNL     1     -12.151  12.218  28.581  1.00  0.00    +0.000 A 
ATOM     28  C   UNL     1     -11.478  13.370  28.998  1.00  0.00    +0.000 A 
ENDBRANCH  15  23
ENDBRANCH   4  15
TORSDOF 9
ENDMDL
MODEL 3
REMARK VINA RESULT:    -7.969      2.656      4.951
REMARK INTER + INTRA:         -12.817
REMARK INTER:                 -11.733
REMARK INTRA:                  -1.084
REMARK UNBOUND:                -0.889
REMARK  Name = 
REMARK  9 active torsions:
REMARK  status: ('A' for Active; 'I' for Inactive)
REMARK    1  A    between atoms: O_1  and  C_2
REMARK    2  A    between atoms: C_2  and  C_4
REMARK    3  A    between atoms: C_4  and  O_5
REMARK    4  A    between atoms: O_5  and  C_6
REMARK    5  A    between atoms: C_6  and  C_7
REMARK    6  A    between atoms: C_7  and  N_8
REMARK    7  A    between atoms: N_11  and  C_14
REMARK    8  A    between atoms: C_14  and  C_15
REMARK    9  A    between atoms: C_14  and  C_21
REMARK                            x       y       z     vdW  Elec       q    Type
REMARK                         _______ _______ _______ _____ _____    ______ ____
ROOT
ATOM      1  N   UNL     1      -8.457  17.070  25.548  1.00  0.00    +0.000 NA
ATOM      2  C   UNL     1      -9.254  15.839  25.349  1.00  0.00    +0.000 C 
ATOM      3  C   UNL     1     -10.445  15.654  26.332  1.00  0.00    +0.000 C 
ATOM      4  N   UNL     1     -10.194  16.303  27.617  1.00  0.00    +0.000 NA
ATOM      5  C   UNL     1      -9.968  17.747  27.444  1.00  0.00    +0.000 C 
ATOM      6  C   UNL     1      -9.307  18.138  26.093  1.00  0.00    +0.000 C 
ENDROOT
BRANCH   1   7
ATOM      7  C   UNL     1      -7.775  17.499  24.319  1.00  0.00    +0.000 C 
BRANCH   7   8
ATOM      8  C   UNL     1      -6.500  18.317  24.575  1.00  0.00    +0.000 C 
BRANCH   8   9
ATOM      9  O   UNL     1      -5.515  17.460  25.166  1.00  0.00    +0.000 OA
BRANCH   9  10
ATOM     10  C   UNL     1      -5.134  17.885  26.467  1.00  0.00    +0.000 C 
BRANCH  10  11
ATOM     11  C   UNL     1      -5.103  16.804  27.546  1.00  0.00    +0.000 C 
ATOM     12  O   UNL     1      -4.169  16.496  28.269  1.00  0.00    +0.000 OA
BRANCH  11  13
ATOM     13  O   UNL     1      -6.280  16.152  27.646  1.00  0.00    +0.000 OA
ATOM     14  H   UNL     1      -6.878  16.652  27.050  1.00  0.00    +0.000 HD
ENDBRANCH  11  13
ENDBRANCH  10  11
ENDBRANCH   9  10
ENDBRANCH   8   9
ENDBRANCH   7   8
ENDBRANCH   1   7
BRANCH   4  15
ATOM     15  C   UNL     1     -11.099  15.962  28.733  1.00  0.00    +0.000 C 
BRANCH  15  16
ATOM     16  C   UNL     1     -10.412  16.020  30.116  1.00  0.00    +0.000 A 
ATOM     17  C   UNL     1     -11.136  15.743  31.294  1.00  0.00    +0.000 A 
ATOM     18  C   UNL     1     -10.535  15.834  32.553  1.00  0.00    +0.000 A 
ATOM     19  C   UNL     1      -9.206  16.229  32.658  1.00  0.00    +0.000 A 
ATOM     20 CL   UNL     1      -8.466  16.343  34.208  1.00  0.00    +0.000 Cl
ATOM     21  C   UNL     1      -8.476  16.545  31.518  1.00  0.00    +0.000 A 
ATOM     22  C   UNL     1      -9.079  16.453  30.259  1.00  0.00    +0.000 A 
ENDBRANCH  15  16
BRANCH  15  23
ATOM     23  C   UNL     1     -11.937  14.699  28.489  1.00  0.00    +0.000 A 
ATOM     24  C   UNL     1     -11.381  13.409  28.562  1.00  0.00    +0.000 A 
ATOM     25  C   UNL     1     -12.164  12.276  28.335  1.00  0.00    +0.000 A 
ATOM     26  C   UNL     1     -13.516  12.412  28.031  1.00  0.00    +0.000 A 
ATOM     27  C   UNL     1     -14.087  13.679  27.955  1.00  0.00    +0.000 A 
ATOM     28  C   UNL     1     -13.305  14.814  28.184  1.00  0.00    +0.000 A 
ENDBRANCH  15  23
ENDBRANCH   4  15
TORSDOF 9
ENDMDL
MODEL 4
REMARK VINA RESULT:    -7.783      2.388      4.415
REMARK INTER + INTRA:         -12.539
REMARK INTER:                 -11.713
REMARK INTRA:                  -0.826
REMARK UNBOUND:                -0.889
REMARK  Name = 
REMARK  9 active torsions:
REMARK  status: ('A' for Active; 'I' for Inactive)
REMARK    1  A    between atoms: O_1  and  C_2
REMARK    2  A    between atoms: C_2  and  C_4
REMARK    3  A    between atoms: C_4  and  O_5
REMARK    4  A    between atoms: O_5  and  C_6
REMARK    5  A    between atoms: C_6  and  C_7
REMARK    6  A    between atoms: C_7  and  N_8
REMARK    7  A    between atoms: N_11  and  C_14
REMARK    8  A    between atoms: C_14  and  C_15
REMARK    9  A    between atoms: C_14  and  C_21
REMARK                            x       y       z     vdW  Elec       q    Type
REMARK                         _______ _______ _______ _____ _____    ______ ____
ROOT
ATOM      1  N   UNL     1      -8.570  17.517  27.104  1.00  0.00    +0.000 NA
ATOM      2  C   UNL     1      -8.838  16.068  26.968  1.00  0.00    +0.000 C 
ATOM      3  C   UNL     1     -10.127  15.562  27.679  1.00  0.00    +0.000 C 
ATOM      4  N   UNL     1     -10.461  16.381  28.843  1.00  0.00    +0.000 NA
ATOM      5  C   UNL     1     -10.677  17.785  28.456  1.00  0.00    +0.000 C 
ATOM      6  C   UNL     1      -9.835  18.254  27.236  1.00  0.00    +0.000 C 
ENDROOT
BRANCH   1   7
ATOM      7  C   UNL     1      -7.756  18.041  25.999  1.00  0.00    +0.000 C 
BRANCH   7   8
ATOM      8  C   UNL     1      -6.475  17.232  25.739  1.00  0.00    +0.000 C 
BRANCH   8   9
ATOM      9  O   UNL     1      -6.420  16.894  24.348  1.00  0.00    +0.000 OA
BRANCH   9  10
ATOM     10  C   UNL     1      -5.716  17.860  23.579  1.00  0.00    +0.000 C 
BRANCH  10  11
ATOM     11  C   UNL     1      -6.565  18.747  22.671  1.00  0.00    +0.000 C 
ATOM     12  O   UNL     1      -7.193  18.416  21.678  1.00  0.00    +0.000 OA
BRANCH  11  13
ATOM     13  O   UNL     1      -6.565  20.035  23.075  1.00  0.00    +0.000 OA
ATOM     14  H   UNL     1      -7.328  20.090  23.689  1.00  0.00    +0.000 HD
ENDBRANCH  11  13
ENDBRANCH  10  11
ENDBRANCH   9  10
ENDBRANCH   8   9
ENDBRANCH   7   8
ENDBRANCH   1   7
BRANCH   4  15
ATOM     15  C   UNL     1     -11.476  15.848  29.773  1.00  0.00    +0.000 C 
BRANCH  15  16
ATOM     16  C   UNL     1     -11.006  15.833  31.245  1.00  0.00    +0.000 A 
ATOM     17  C   UNL     1      -9.645  16.009  31.570  1.00  0.00    +0.000 A 
ATOM     18  C   UNL     1      -9.203  15.954  32.895  1.00  0.00    +0.000 A 
ATOM     19  C   UNL     1     -10.109  15.694  33.917  1.00  0.00    +0.000 A 
ATOM     20 CL   UNL     1      -9.565  15.625  35.548  1.00  0.00    +0.000 Cl
ATOM     21  C   UNL     1     -11.451  15.478  33.625  1.00  0.00    +0.000 A 
ATOM     22  C   UNL     1     -11.892  15.535  32.298  1.00  0.00    +0.000 A 
ENDBRANCH  15  16
BRANCH  15  23
ATOM     23  C   UNL     1     -12.128  14.541  29.298  1.00  0.00    +0.000 A 
ATOM     24  C   UNL     1     -11.587  13.281  29.612  1.00  0.00    +0.000 A 
ATOM     25  C   UNL     1     -12.198  12.107  29.167  1.00  0.00    +0.000 A 
ATOM     26  C   UNL     1     -13.360  12.172  28.401  1.00  0.00    +0.000 A 
ATOM     27  C   UNL     1     -13.912  13.409  28.081  1.00  0.00    +0.000 A 
ATOM     28  C   UNL     1     -13.302  14.585  28.527  1.00  0.00    +0.000 A 
ENDBRANCH  15  23
ENDBRANCH   4  15
TORSDOF 9
ENDMDL
MODEL 5
REMARK VINA RESULT:    -7.782      2.785      4.825
REMARK INTER + INTRA:         -12.538
REMARK INTER:                 -12.039
REMARK INTRA:                  -0.499
REMARK UNBOUND:                -0.889
REMARK  Name = 
REMARK  9 active torsions:
REMARK  status: ('A' for Active; 'I' for Inactive)
REMARK    1  A    between atoms: O_1  and  C_2
REMARK    2  A    between atoms: C_2  and  C_4
REMARK    3  A    between atoms: C_4  and  O_5
REMARK    4  A    between atoms: O_5  and  C_6
REMARK    5  A    between atoms: C_6  and  C_7
REMARK    6  A    between atoms: C_7  and  N_8
REMARK    7  A    between atoms: N_11  and  C_14
REMARK    8  A    between atoms: C_14  and  C_15
REMARK    9  A    between atoms: C_14  and  C_21
REMARK                            x       y       z     vdW  Elec       q    Type
REMARK                         _______ _______ _______ _____ _____    ______ ____
ROOT
ATOM      1  N   UNL     1      -8.440  16.942  25.592  1.00  0.00    +0.000 NA
ATOM      2  C   UNL     1      -9.184  15.674  25.424  1.00  0.00    +0.000 C 
ATOM      3  C   UNL     1     -10.388  15.479  26.389  1.00  0.00    +0.000 C 
ATOM      4  N   UNL     1     -10.189  16.184  27.654  1.00  0.00    +0.000 NA
ATOM      5  C   UNL     1     -10.016  17.629  27.431  1.00  0.00    +0.000 C 
ATOM      6  C   UNL     1      -9.342  17.996  26.079  1.00  0.00    +0.000 C 
ENDROOT
BRANCH   1   7
ATOM      7  C   UNL     1      -7.750  17.353  24.361  1.00  0.00    +0.000 C 
BRANCH   7   8
ATOM      8  C   UNL     1      -7.925  16.366  23.197  1.00  0.00    +0.000 C 
BRANCH   8   9
ATOM      9  O   UNL     1      -7.053  16.755  22.129  1.00  0.00    +0.000 OA
BRANCH   9  10
ATOM     10  C   UNL     1      -7.322  16.055  20.922  1.00  0.00    +0.000 C 
BRANCH  10  11
ATOM     11  C   UNL     1      -8.558  16.503  20.146  1.00  0.00    +0.000 C 
ATOM     12  O   UNL     1      -9.201  15.862  19.330  1.00  0.00    +0.000 OA
BRANCH  11  13
ATOM     13  O   UNL     1      -8.915  17.770  20.446  1.00  0.00    +0.000 OA
ATOM     14  H   UNL     1      -8.884  17.798  21.426  1.00  0.00    +0.000 HD
ENDBRANCH  11  13
ENDBRANCH  10  11
ENDBRANCH   9  10
ENDBRANCH   8   9
ENDBRANCH   7   8
ENDBRANCH   1   7
BRANCH   4  15
ATOM     15  C   UNL     1     -11.104  15.849  28.764  1.00  0.00    +0.000 C 
BRANCH  15  16
ATOM     16  C   UNL     1     -10.427  15.909  30.152  1.00  0.00    +0.000 A 
ATOM     17  C   UNL     1     -11.180  15.723  31.330  1.00  0.00    +0.000 A 
ATOM     18  C   UNL     1     -10.585  15.818  32.592  1.00  0.00    +0.000 A 
ATOM     19  C   UNL     1      -9.234  16.128  32.699  1.00  0.00    +0.000 A 
ATOM     20 CL   UNL     1      -8.503  16.247  34.252  1.00  0.00    +0.000 Cl
ATOM     21  C   UNL     1      -8.475  16.355  31.557  1.00  0.00    +0.000 A 
ATOM     22  C   UNL     1      -9.071  16.258  30.295  1.00  0.00    +0.000 A 
ENDBRANCH  15  16
BRANCH  15  23
ATOM     23  C   UNL     1     -11.943  14.587  28.517  1.00  0.00    +0.000 A 
ATOM     24  C   UNL     1     -11.398  13.295  28.631  1.00  0.00    +0.000 A 
ATOM     25  C   UNL     1     -12.182  12.163  28.401  1.00  0.00    +0.000 A 
ATOM     26  C   UNL     1     -13.523  12.302  28.052  1.00  0.00    +0.000 A 
ATOM     27  C   UNL     1     -14.082  13.571  27.936  1.00  0.00    +0.000 A 
ATOM     28  C   UNL     1     -13.300  14.705  28.168  1.00  0.00    +0.000 A 
ENDBRANCH  15  23
ENDBRANCH   4  15
TORSDOF 9
ENDMDL
MODEL 6
REMARK VINA RESULT:    -7.540      2.916      4.824
REMARK INTER + INTRA:         -12.176
REMARK INTER:                 -11.216
REMARK INTRA:                  -0.960
REMARK UNBOUND:                -0.889
REMARK  Name = 
REMARK  9 active torsions:
REMARK  status: ('A' for Active; 'I' for Inactive)
REMARK    1  A    between atoms: O_1  and  C_2
REMARK    2  A    between atoms: C_2  and  C_4
REMARK    3  A    between atoms: C_4  and  O_5
REMARK    4  A    between atoms: O_5  and  C_6
REMARK    5  A    between atoms: C_6  and  C_7
REMARK    6  A    between atoms: C_7  and  N_8
REMARK    7  A    between atoms: N_11  and  C_14
REMARK    8  A    between atoms: C_14  and  C_15
REMARK    9  A    between atoms: C_14  and  C_21
REMARK                            x       y       z     vdW  Elec       q    Type
REMARK                         _______ _______ _______ _____ _____    ______ ____
ROOT
ATOM      1  N   UNL     1      -8.497  17.511  28.075  1.00  0.00    +0.000 NA
ATOM      2  C   UNL     1      -8.435  16.040  28.227  1.00  0.00    +0.000 C 
ATOM      3  C   UNL     1      -9.738  15.373  28.753  1.00  0.00    +0.000 C 
ATOM      4  N   UNL     1     -10.509  16.282  29.600  1.00  0.00    +0.000 NA
ATOM      5  C   UNL     1     -10.888  17.497  28.861  1.00  0.00    +0.000 C 
ATOM      6  C   UNL     1      -9.872  17.929  27.768  1.00  0.00    +0.000 C 
ENDROOT
BRANCH   1   7
ATOM      7  C   UNL     1      -7.547  18.010  27.071  1.00  0.00    +0.000 C 
BRANCH   7   8
ATOM      8  C   UNL     1      -8.058  17.895  25.626  1.00  0.00    +0.000 C 
BRANCH   8   9
ATOM      9  O   UNL     1      -7.217  16.982  24.912  1.00  0.00    +0.000 OA
BRANCH   9  10
ATOM     10  C   UNL     1      -7.778  16.581  23.670  1.00  0.00    +0.000 C 
BRANCH  10  11
ATOM     11  C   UNL     1      -8.198  15.117  23.562  1.00  0.00    +0.000 C 
ATOM     12  O   UNL     1      -9.189  14.586  24.036  1.00  0.00    +0.000 OA
BRANCH  11  13
ATOM     13  O   UNL     1      -7.314  14.386  22.849  1.00  0.00    +0.000 OA
ATOM     14  H   UNL     1      -7.555  13.458  23.055  1.00  0.00    +0.000 HD
ENDBRANCH  11  13
ENDBRANCH  10  11
ENDBRANCH   9  10
ENDBRANCH   8   9
ENDBRANCH   7   8
ENDBRANCH   1   7
BRANCH   4  15
ATOM     15  C   UNL     1     -11.603  15.693  30.398  1.00  0.00    +0.000 C 
BRANCH  15  16
ATOM     16  C   UNL     1     -11.246  15.524  31.892  1.00  0.00    +0.000 A 
ATOM     17  C   UNL     1     -12.247  15.249  32.847  1.00  0.00    +0.000 A 
ATOM     18  C   UNL     1     -11.940  15.137  34.207  1.00  0.00    +0.000 A 
ATOM     19  C   UNL     1     -10.632  15.326  34.639  1.00  0.00    +0.000 A 
ATOM     20 CL   UNL     1     -10.255  15.190  36.312  1.00  0.00    +0.000 Cl
ATOM     21  C   UNL     1      -9.630  15.635  33.727  1.00  0.00    +0.000 A 
ATOM     22  C   UNL     1      -9.938  15.746  32.366  1.00  0.00    +0.000 A 
ENDBRANCH  15  16
BRANCH  15  23
ATOM     23  C   UNL     1     -12.248  14.458  29.753  1.00  0.00    +0.000 A 
ATOM     24  C   UNL     1     -11.836  13.151  30.068  1.00  0.00    +0.000 A 
ATOM     25  C   UNL     1     -12.437  12.044  29.467  1.00  0.00    +0.000 A 
ATOM     26  C   UNL     1     -13.461  12.224  28.540  1.00  0.00    +0.000 A 
ATOM     27  C   UNL     1     -13.885  13.509  28.215  1.00  0.00    +0.000 A 
ATOM     28  C   UNL     1     -13.285  14.618  28.817  1.00  0.00    +0.000 A 
ENDBRANCH  15  23
ENDBRANCH   4  15
TORSDOF 9
ENDMDL
MODEL 7
REMARK VINA RESULT:    -7.473      2.752      4.946
REMARK INTER + INTRA:         -12.075
REMARK INTER:                 -11.360
REMARK INTRA:                  -0.715
REMARK UNBOUND:                -0.889
REMARK  Name = 
REMARK  9 active torsions:
REMARK  status: ('A' for Active; 'I' for Inactive)
REMARK    1  A    between atoms: O_1  and  C_2
REMARK    2  A    between atoms: C_2  and  C_4
REMARK    3  A    between atoms: C_4  and  O_5
REMARK    4  A    between atoms: O_5  and  C_6
REMARK    5  A    between atoms: C_6  and  C_7
REMARK    6  A    between atoms: C_7  and  N_8
REMARK    7  A    between atoms: N_11  and  C_14
REMARK    8  A    between atoms: C_14  and  C_15
REMARK    9  A    between atoms: C_14  and  C_21
REMARK                            x       y       z     vdW  Elec       q    Type
REMARK                         _______ _______ _______ _____ _____    ______ ____
ROOT
ATOM      1  N   UNL     1      -8.673  15.375  24.331  1.00  0.00    +0.000 NA
ATOM      2  C   UNL     1      -9.992  16.030  24.189  1.00  0.00    +0.000 C 
ATOM      3  C   UNL     1     -10.693  16.409  25.525  1.00  0.00    +0.000 C 
ATOM      4  N   UNL     1     -10.303  15.514  26.614  1.00  0.00    +0.000 NA
ATOM      5  C   UNL     1      -8.848  15.556  26.836  1.00  0.00    +0.000 C 
ATOM      6  C   UNL     1      -8.010  15.839  25.559  1.00  0.00    +0.000 C 
ENDROOT
BRANCH   1   7
ATOM      7  C   UNL     1      -7.820  15.574  23.151  1.00  0.00    +0.000 C 
BRANCH   7   8
ATOM      8  C   UNL     1      -8.485  16.403  22.041  1.00  0.00    +0.000 C 
BRANCH   8   9
ATOM      9  O   UNL     1      -7.824  17.670  21.955  1.00  0.00    +0.000 OA
BRANCH   9  10
ATOM     10  C   UNL     1      -6.558  17.670  22.601  1.00  0.00    +0.000 C 
BRANCH  10  11
ATOM     11  C   UNL     1      -6.300  18.813  23.579  1.00  0.00    +0.000 C 
ATOM     12  O   UNL     1      -5.926  18.735  24.739  1.00  0.00    +0.000 OA
BRANCH  11  13
ATOM     13  O   UNL     1      -6.545  20.020  23.027  1.00  0.00    +0.000 OA
ATOM     14  H   UNL     1      -5.652  20.396  22.875  1.00  0.00    +0.000 HD
ENDBRANCH  11  13
ENDBRANCH  10  11
ENDBRANCH   9  10
ENDBRANCH   8   9
ENDBRANCH   7   8
ENDBRANCH   1   7
BRANCH   4  15
ATOM     15  C   UNL     1     -11.105  15.570  27.853  1.00  0.00    +0.000 C 
BRANCH  15  16
ATOM     16  C   UNL     1     -10.269  15.916  29.106  1.00  0.00    +0.000 A 
ATOM     17  C   UNL     1      -9.866  14.907  30.005  1.00  0.00    +0.000 A 
ATOM     18  C   UNL     1      -9.147  15.215  31.164  1.00  0.00    +0.000 A 
ATOM     19  C   UNL     1      -8.841  16.539  31.458  1.00  0.00    +0.000 A 
ATOM     20 CL   UNL     1      -7.957  16.918  32.885  1.00  0.00    +0.000 Cl
ATOM     21  C   UNL     1      -9.257  17.559  30.610  1.00  0.00    +0.000 A 
ATOM     22  C   UNL     1      -9.976  17.249  29.450  1.00  0.00    +0.000 A 
ENDBRANCH  15  16
BRANCH  15  23
ATOM     23  C   UNL     1     -12.057  14.378  28.030  1.00  0.00    +0.000 A 
ATOM     24  C   UNL     1     -11.592  13.051  28.062  1.00  0.00    +0.000 A 
ATOM     25  C   UNL     1     -12.478  11.984  28.223  1.00  0.00    +0.000 A 
ATOM     26  C   UNL     1     -13.844  12.225  28.355  1.00  0.00    +0.000 A 
ATOM     27  C   UNL     1     -14.324  13.531  28.328  1.00  0.00    +0.000 A 
ATOM     28  C   UNL     1     -13.438  14.600  28.168  1.00  0.00    +0.000 A 
ENDBRANCH  15  23
ENDBRANCH   4  15
TORSDOF 9
ENDMDL
MODEL 8
REMARK VINA RESULT:    -7.326      3.035      4.924
REMARK INTER + INTRA:         -11.856
REMARK INTER:                 -10.449
REMARK INTRA:                  -1.406
REMARK UNBOUND:                -0.889
REMARK  Name = 
REMARK  9 active torsions:
REMARK  status: ('A' for Active; 'I' for Inactive)
REMARK    1  A    between atoms: O_1  and  C_2
REMARK    2  A    between atoms: C_2  and  C_4
REMARK    3  A    between atoms: C_4  and  O_5
REMARK    4  A    between atoms: O_5  and  C_6
REMARK    5  A    between atoms: C_6  and  C_7
REMARK    6  A    between atoms: C_7  and  N_8
REMARK    7  A    between atoms: N_11  and  C_14
REMARK    8  A    between atoms: C_14  and  C_15
REMARK    9  A    between atoms: C_14  and  C_21
REMARK                            x       y       z     vdW  Elec       q    Type
REMARK                         _______ _______ _______ _____ _____    ______ ____
ROOT
ATOM      1  N   UNL     1      -9.159  16.105  21.931  1.00  0.00    +0.000 NA
ATOM      2  C   UNL     1      -8.084  15.139  22.250  1.00  0.00    +0.000 C 
ATOM      3  C   UNL     1      -8.016  14.689  23.738  1.00  0.00    +0.000 C 
ATOM      4  N   UNL     1      -8.524  15.722  24.640  1.00  0.00    +0.000 NA
ATOM      5  C   UNL     1      -9.924  16.052  24.329  1.00  0.00    +0.000 C 
ATOM      6  C   UNL     1     -10.304  15.900  22.830  1.00  0.00    +0.000 C 
ENDROOT
BRANCH   1   7
ATOM      7  C   UNL     1      -9.565  16.045  20.520  1.00  0.00    +0.000 C 
BRANCH   7   8
ATOM      8  C   UNL     1      -8.478  16.522  19.544  1.00  0.00    +0.000 C 
BRANCH   8   9
ATOM      9  O   UNL     1      -8.040  17.825  19.947  1.00  0.00    +0.000 OA
BRANCH   9  10
ATOM     10  C   UNL     1      -6.645  17.873  20.213  1.00  0.00    +0.000 C 
BRANCH  10  11
ATOM     11  C   UNL     1      -6.242  18.323  21.616  1.00  0.00    +0.000 C 
ATOM     12  O   UNL     1      -5.116  18.527  22.041  1.00  0.00    +0.000 OA
BRANCH  11  13
ATOM     13  O   UNL     1      -7.311  18.485  22.424  1.00  0.00    +0.000 OA
ATOM     14  H   UNL     1      -7.364  19.455  22.554  1.00  0.00    +0.000 HD
ENDBRANCH  11  13
ENDBRANCH  10  11
ENDBRANCH   9  10
ENDBRANCH   8   9
ENDBRANCH   7   8
ENDBRANCH   1   7
BRANCH   4  15
ATOM     15  C   UNL     1      -8.248  15.552  26.081  1.00  0.00    +0.000 C 
BRANCH  15  16
ATOM     16  C   UNL     1      -9.530  15.427  26.936  1.00  0.00    +0.000 A 
ATOM     17  C   UNL     1     -10.029  16.533  27.654  1.00  0.00    +0.000 A 
ATOM     18  C   UNL     1     -11.162  16.419  28.465  1.00  0.00    +0.000 A 
ATOM     19  C   UNL     1     -11.801  15.191  28.593  1.00  0.00    +0.000 A 
ATOM     20 CL   UNL     1     -13.194  15.050  29.593  1.00  0.00    +0.000 Cl
ATOM     21  C   UNL     1     -11.310  14.073  27.928  1.00  0.00    +0.000 A 
ATOM     22  C   UNL     1     -10.177  14.189  27.116  1.00  0.00    +0.000 A 
ENDBRANCH  15  16
BRANCH  15  23
ATOM     23  C   UNL     1      -7.206  16.535  26.633  1.00  0.00    +0.000 A 
ATOM     24  C   UNL     1      -6.327  16.185  27.674  1.00  0.00    +0.000 A 
ATOM     25  C   UNL     1      -5.389  17.097  28.159  1.00  0.00    +0.000 A 
ATOM     26  C   UNL     1      -5.312  18.376  27.612  1.00  0.00    +0.000 A 
ATOM     27  C   UNL     1      -6.171  18.742  26.580  1.00  0.00    +0.000 A 
ATOM     28  C   UNL     1      -7.109  17.830  26.092  1.00  0.00    +0.000 A 
ENDBRANCH  15  23
ENDBRANCH   4  15
TORSDOF 9
ENDMDL
MODEL 9
REMARK VINA RESULT:    -7.184      5.546      8.540
REMARK INTER + INTRA:         -11.643
REMARK INTER:                 -10.497
REMARK INTRA:                  -1.146
REMARK UNBOUND:                -0.889
REMARK  Name = 
REMARK  9 active torsions:
REMARK  status: ('A' for Active; 'I' for Inactive)
REMARK    1  A    between atoms: O_1  and  C_2
REMARK    2  A    between atoms: C_2  and  C_4
REMARK    3  A    between atoms: C_4  and  O_5
REMARK    4  A    between atoms: O_5  and  C_6
REMARK    5  A    between atoms: C_6  and  C_7
REMARK    6  A    between atoms: C_7  and  N_8
REMARK    7  A    between atoms: N_11  and  C_14
REMARK    8  A    between atoms: C_14  and  C_15
REMARK    9  A    between atoms: C_14  and  C_21
REMARK                            x       y       z     vdW  Elec       q    Type
REMARK                         _______ _______ _______ _____ _____    ______ ____
ROOT
ATOM      1  N   UNL     1      -9.725  15.818  33.160  1.00  0.00    +0.000 NA
ATOM      2  C   UNL     1     -11.100  15.523  32.699  1.00  0.00    +0.000 C 
ATOM      3  C   UNL     1     -11.195  14.691  31.388  1.00  0.00    +0.000 C 
ATOM      4  N   UNL     1     -10.039  14.910  30.521  1.00  0.00    +0.000 NA
ATOM      5  C   UNL     1      -8.789  14.538  31.205  1.00  0.00    +0.000 C 
ATOM      6  C   UNL     1      -8.812  14.743  32.745  1.00  0.00    +0.000 C 
ENDROOT
BRANCH   1   7
ATOM      7  C   UNL     1      -9.659  16.050  34.610  1.00  0.00    +0.000 C 
BRANCH   7   8
ATOM      8  C   UNL     1     -10.963  15.712  35.348  1.00  0.00    +0.000 C 
BRANCH   8   9
ATOM      9  O   UNL     1     -10.716  14.618  36.240  1.00  0.00    +0.000 OA
BRANCH   9  10
ATOM     10  C   UNL     1     -11.805  13.707  36.300  1.00  0.00    +0.000 C 
BRANCH  10  11
ATOM     11  C   UNL     1     -11.969  12.773  35.104  1.00  0.00    +0.000 C 
ATOM     12  O   UNL     1     -12.812  12.827  34.223  1.00  0.00    +0.000 OA
BRANCH  11  13
ATOM     13  O   UNL     1     -11.039  11.794  35.092  1.00  0.00    +0.000 OA
ATOM     14  H   UNL     1     -10.330  12.136  35.678  1.00  0.00    +0.000 HD
ENDBRANCH  11  13
ENDBRANCH  10  11
ENDBRANCH   9  10
ENDBRANCH   8   9
ENDBRANCH   7   8
ENDBRANCH   1   7
BRANCH   4  15
ATOM     15  C   UNL     1     -10.136  14.421  29.131  1.00  0.00    +0.000 C 
BRANCH  15  16
ATOM     16  C   UNL     1      -9.434  15.344  28.109  1.00  0.00    +0.000 A 
ATOM     17  C   UNL     1      -8.859  14.815  26.935  1.00  0.00    +0.000 A 
ATOM     18  C   UNL     1      -8.185  15.635  26.025  1.00  0.00    +0.000 A 
ATOM     19  C   UNL     1      -8.049  16.994  26.287  1.00  0.00    +0.000 A 
ATOM     20 CL   UNL     1      -7.218  18.003  25.168  1.00  0.00    +0.000 Cl
ATOM     21  C   UNL     1      -8.572  17.538  27.454  1.00  0.00    +0.000 A 
ATOM     22  C   UNL     1      -9.248  16.716  28.363  1.00  0.00    +0.000 A 
ENDBRANCH  15  16
BRANCH  15  23
ATOM     23  C   UNL     1     -11.549  13.979  28.726  1.00  0.00    +0.000 A 
ATOM     24  C   UNL     1     -12.541  14.903  28.348  1.00  0.00    +0.000 A 
ATOM     25  C   UNL     1     -13.819  14.476  27.986  1.00  0.00    +0.000 A 
ATOM     26  C   UNL     1     -14.130  13.118  27.993  1.00  0.00    +0.000 A 
ATOM     27  C   UNL     1     -13.163  12.187  28.362  1.00  0.00    +0.000 A 
ATOM     28  C   UNL     1     -11.883  12.613  28.724  1.00  0.00    +0.000 A 
ENDBRANCH  15  23
ENDBRANCH   4  15
TORSDOF 9
ENDMDL
