MODEL 1
REMARK VINA RESULT:    -8.223      0.000      0.000
REMARK INTER + INTRA:         -10.374
REMARK INTER:                  -9.905
REMARK INTRA:                  -0.468
REMARK UNBOUND:                -0.468
REMARK  Name = 
REMARK  4 active torsions:
REMARK  status: ('A' for Active; 'I' for Inactive)
REMARK    1  A    between atoms: O_1  and  C_2
REMARK    2  A    between atoms: C_2  and  C_4
REMARK    3  A    between atoms: N_6  and  C_7
REMARK    4  A    between atoms: C_12  and  N_13
REMARK                            x       y       z     vdW  Elec       q    Type
REMARK                         _______ _______ _______ _____ _____    ______ ____
ROOT
ATOM      1  C   UNL     1      -7.222  18.169  24.639  1.00  0.00    +0.000 A 
ATOM      2  C   UNL     1      -8.053  17.357  23.969  1.00  0.00    +0.000 A 
ATOM      3  N   UNL     1      -9.119  16.658  24.508  1.00  0.00    +0.000 N 
ATOM      4  C   UNL     1      -9.302  16.654  25.921  1.00  0.00    +0.000 A 
ATOM      5  C   UNL     1     -10.258  15.841  26.562  1.00  0.00    +0.000 A 
ATOM      6  C   UNL     1     -10.442  15.842  27.959  1.00  0.00    +0.000 A 
ATOM      7  C   UNL     1      -9.628  16.723  28.701  1.00  0.00    +0.000 A 
ATOM      8  F   UNL     1      -9.779  16.824  30.031  1.00  0.00    +0.000 F 
ATOM      9  C   UNL     1      -8.670  17.535  28.103  1.00  0.00    +0.000 A 
ATOM     10  C   UNL     1      -8.503  17.493  26.720  1.00  0.00    +0.000 A 
ATOM     11  C   UNL     1      -7.470  18.354  26.088  1.00  0.00    +0.000 A 
ATOM     12  O   UNL     1      -6.878  19.188  26.763  1.00  0.00    +0.000 OA
ENDROOT
BRANCH   6  13
ATOM     13  N   UNL     1     -11.407  15.042  28.597  1.00  0.00    +0.000 N 
ATOM     14  C   UNL     1     -11.290  13.593  28.296  1.00  0.00    +0.000 C 
ATOM     15  C   UNL     1     -12.164  12.764  29.265  1.00  0.00    +0.000 C 
ATOM     16  N   UNL     1     -13.579  13.186  29.293  1.00  0.00    +0.000 NA
ATOM     17  C   UNL     1     -13.641  14.627  29.602  1.00  0.00    +0.000 C 
ATOM     18  C   UNL     1     -12.813  15.496  28.627  1.00  0.00    +0.000 C 
ATOM     19  H   UNL     1     -14.062  12.670  30.027  1.00  0.00    +0.000 HD
ENDBRANCH   6  13
BRANCH   3  20
ATOM     20  C   UNL     1      -9.886  15.765  23.620  1.00  0.00    +0.000 C 
ATOM     21  C   UNL     1      -9.348  14.429  23.161  1.00  0.00    +0.000 C 
ATOM     22  C   UNL     1      -9.487  15.549  22.180  1.00  0.00    +0.000 C 
ENDBRANCH   3  20
BRANCH   1  23
ATOM     23  C   UNL     1      -6.140  18.808  23.882  1.00  0.00    +0.000 C 
ATOM     24  O   UNL     1      -4.952  18.547  23.983  1.00  0.00    +0.000 OA
BRANCH  23  25
ATOM     25  O   UNL     1      -6.561  19.799  23.082  1.00  0.00    +0.000 OA
ATOM     26  H   UNL     1      -5.861  19.895  22.405  1.00  0.00    +0.000 HD
ENDBRANCH  23  25
ENDBRANCH   1  23
TORSDOF 4
ENDMDL
MODEL 2
REMARK VINA RESULT:    -8.049      2.576      3.914
REMARK INTER + INTRA:         -10.164
REMARK INTER:                  -9.590
REMARK INTRA:                  -0.574
REMARK UNBOUND:                -0.468
REMARK  Name = 
REMARK  4 active torsions:
REMARK  status: ('A' for Active; 'I' for Inactive)
REMARK    1  A    between atoms: O_1  and  C_2
REMARK    2  A    between atoms: C_2  and  C_4
REMARK    3  A    between atoms: N_6  and  C_7
REMARK    4  A    between atoms: C_12  and  N_13
REMARK                            x       y       z     vdW  Elec       q    Type
REMARK                         _______ _______ _______ _____ _____    ______ ____
ROOT
ATOM      1  C   UNL     1      -8.059  17.228  22.943  1.00  0.00    +0.000 A 
ATOM      2  C   UNL     1      -7.164  17.658  23.845  1.00  0.00    +0.000 A 
ATOM      3  N   UNL     1      -7.148  17.345  25.192  1.00  0.00    +0.000 N 
ATOM      4  C   UNL     1      -8.243  16.620  25.747  1.00  0.00    +0.000 A 
ATOM      5  C   UNL     1      -8.386  16.402  27.132  1.00  0.00    +0.000 A 
ATOM      6  C   UNL     1      -9.465  15.680  27.680  1.00  0.00    +0.000 A 
ATOM      7  C   UNL     1     -10.403  15.159  26.765  1.00  0.00    +0.000 A 
ATOM      8  F   UNL     1     -11.431  14.414  27.202  1.00  0.00    +0.000 F 
ATOM      9  C   UNL     1     -10.298  15.360  25.393  1.00  0.00    +0.000 A 
ATOM     10  C   UNL     1      -9.226  16.096  24.889  1.00  0.00    +0.000 A 
ATOM     11  C   UNL     1      -9.125  16.318  23.423  1.00  0.00    +0.000 A 
ATOM     12  O   UNL     1      -9.896  15.740  22.666  1.00  0.00    +0.000 OA
ENDROOT
BRANCH   6  13
ATOM     13  N   UNL     1      -9.599  15.449  29.061  1.00  0.00    +0.000 N 
ATOM     14  C   UNL     1     -10.540  16.373  29.744  1.00  0.00    +0.000 C 
ATOM     15  C   UNL     1     -10.869  15.861  31.165  1.00  0.00    +0.000 C 
ATOM     16  N   UNL     1      -9.674  15.613  31.996  1.00  0.00    +0.000 NA
ATOM     17  C   UNL     1      -8.778  14.687  31.278  1.00  0.00    +0.000 C 
ATOM     18  C   UNL     1      -8.389  15.185  29.868  1.00  0.00    +0.000 C 
ATOM     19  H   UNL     1      -9.966  15.179  32.871  1.00  0.00    +0.000 HD
ENDBRANCH   6  13
BRANCH   3  20
ATOM     20  C   UNL     1      -6.113  17.965  26.040  1.00  0.00    +0.000 C 
ATOM     21  C   UNL     1      -6.356  19.250  26.797  1.00  0.00    +0.000 C 
ATOM     22  C   UNL     1      -5.418  19.241  25.632  1.00  0.00    +0.000 C 
ENDBRANCH   3  20
BRANCH   1  23
ATOM     23  C   UNL     1      -7.907  17.691  21.559  1.00  0.00    +0.000 C 
ATOM     24  O   UNL     1      -6.894  18.175  21.079  1.00  0.00    +0.000 OA
BRANCH  23  25
ATOM     25  O   UNL     1      -9.036  17.607  20.841  1.00  0.00    +0.000 OA
ATOM     26  H   UNL     1      -8.795  17.088  20.048  1.00  0.00    +0.000 HD
ENDBRANCH  23  25
ENDBRANCH   1  23
TORSDOF 4
ENDMDL
MODEL 3
REMARK VINA RESULT:    -7.965      4.037      5.743
REMARK INTER + INTRA:         -10.064
REMARK INTER:                 -10.051
REMARK INTRA:                  -0.012
REMARK UNBOUND:                -0.468
REMARK  Name = 
REMARK  4 active torsions:
REMARK  status: ('A' for Active; 'I' for Inactive)
REMARK    1  A    between atoms: O_1  and  C_2
REMARK    2  A    between atoms: C_2  and  C_4
REMARK    3  A    between atoms: N_6  and  C_7
REMARK    4  A    between atoms: C_12  and  N_13
REMARK                            x       y       z     vdW  Elec       q    Type
REMARK                         _______ _______ _______ _____ _____    ______ ____
ROOT
ATOM      1  C   UNL     1     -10.493  15.767  27.386  1.00  0.00    +0.000 A 
ATOM      2  C   UNL     1     -11.649  15.307  27.887  1.00  0.00    +0.000 A 
ATOM      3  N   UNL     1     -11.991  15.249  29.226  1.00  0.00    +0.000 N 
ATOM      4  C   UNL     1     -11.005  15.560  30.207  1.00  0.00    +0.000 A 
ATOM      5  C   UNL     1     -11.218  15.369  31.587  1.00  0.00    +0.000 A 
ATOM      6  C   UNL     1     -10.245  15.683  32.557  1.00  0.00    +0.000 A 
ATOM      7  C   UNL     1      -9.033  16.223  32.081  1.00  0.00    +0.000 A 
ATOM      8  F   UNL     1      -8.076  16.598  32.944  1.00  0.00    +0.000 F 
ATOM      9  C   UNL     1      -8.785  16.418  30.727  1.00  0.00    +0.000 A 
ATOM     10  C   UNL     1      -9.764  16.079  29.794  1.00  0.00    +0.000 A 
ATOM     11  C   UNL     1      -9.489  16.279  28.348  1.00  0.00    +0.000 A 
ATOM     12  O   UNL     1      -8.471  16.865  27.998  1.00  0.00    +0.000 OA
ENDROOT
BRANCH   6  13
ATOM     13  N   UNL     1     -10.465  15.507  33.935  1.00  0.00    +0.000 N 
ATOM     14  C   UNL     1     -11.862  15.149  34.288  1.00  0.00    +0.000 C 
ATOM     15  C   UNL     1     -11.946  14.670  35.755  1.00  0.00    +0.000 C 
ATOM     16  N   UNL     1     -11.386  15.632  36.724  1.00  0.00    +0.000 NA
ATOM     17  C   UNL     1      -9.999  15.948  36.335  1.00  0.00    +0.000 C 
ATOM     18  C   UNL     1      -9.878  16.474  34.886  1.00  0.00    +0.000 C 
ATOM     19  H   UNL     1     -11.380  15.201  37.649  1.00  0.00    +0.000 HD
ENDBRANCH   6  13
BRANCH   3  20
ATOM     20  C   UNL     1     -13.290  14.652  29.588  1.00  0.00    +0.000 C 
ATOM     21  C   UNL     1     -13.505  13.157  29.635  1.00  0.00    +0.000 C 
ATOM     22  C   UNL     1     -14.158  13.967  28.561  1.00  0.00    +0.000 C 
ENDBRANCH   3  20
BRANCH   1  23
ATOM     23  C   UNL     1     -10.320  15.729  25.929  1.00  0.00    +0.000 C 
ATOM     24  O   UNL     1      -9.566  14.985  25.323  1.00  0.00    +0.000 OA
BRANCH  23  25
ATOM     25  O   UNL     1     -11.032  16.663  25.283  1.00  0.00    +0.000 OA
ATOM     26  H   UNL     1     -10.397  17.383  25.095  1.00  0.00    +0.000 HD
ENDBRANCH  23  25
ENDBRANCH   1  23
TORSDOF 4
ENDMDL
MODEL 4
REMARK VINA RESULT:    -7.954      4.254      7.591
REMARK INTER + INTRA:         -10.049
REMARK INTER:                  -9.393
REMARK INTRA:                  -0.656
REMARK UNBOUND:                -0.468
REMARK  Name = 
REMARK  4 active torsions:
REMARK  status: ('A' for Active; 'I' for Inactive)
REMARK    1  A    between atoms: O_1  and  C_2
REMARK    2  A    between atoms: C_2  and  C_4
REMARK    3  A    between atoms: N_6  and  C_7
REMARK    4  A    between atoms: C_12  and  N_13
REMARK                            x       y       z     vdW  Elec       q    Type
REMARK                         _______ _______ _______ _____ _____    ______ ____
ROOT
ATOM      1  C   UNL     1     -10.775  15.389  33.486  1.00  0.00    +0.000 A 
ATOM      2  C   UNL     1     -11.649  14.717  32.723  1.00  0.00    +0.000 A 
ATOM      3  N   UNL     1     -11.534  14.484  31.364  1.00  0.00    +0.000 N 
ATOM      4  C   UNL     1     -10.483  15.118  30.639  1.00  0.00    +0.000 A 
ATOM      5  C   UNL     1     -10.390  15.067  29.234  1.00  0.00    +0.000 A 
ATOM      6  C   UNL     1      -9.348  15.689  28.518  1.00  0.00    +0.000 A 
ATOM      7  C   UNL     1      -8.373  16.361  29.283  1.00  0.00    +0.000 A 
ATOM      8  F   UNL     1      -7.318  16.934  28.681  1.00  0.00    +0.000 F 
ATOM      9  C   UNL     1      -8.436  16.438  30.670  1.00  0.00    +0.000 A 
ATOM     10  C   UNL     1      -9.492  15.826  31.343  1.00  0.00    +0.000 A 
ATOM     11  C   UNL     1      -9.561  15.922  32.824  1.00  0.00    +0.000 A 
ATOM     12  O   UNL     1      -8.626  16.410  33.447  1.00  0.00    +0.000 OA
ENDROOT
BRANCH   6  13
ATOM     13  N   UNL     1      -9.247  15.624  27.117  1.00  0.00    +0.000 N 
ATOM     14  C   UNL     1     -10.537  15.811  26.405  1.00  0.00    +0.000 C 
ATOM     15  C   UNL     1     -10.295  16.042  24.896  1.00  0.00    +0.000 C 
ATOM     16  N   UNL     1      -9.487  14.983  24.257  1.00  0.00    +0.000 NA
ATOM     17  C   UNL     1      -8.218  14.843  24.995  1.00  0.00    +0.000 C 
ATOM     18  C   UNL     1      -8.417  14.567  26.503  1.00  0.00    +0.000 C 
ATOM     19  H   UNL     1      -9.283  15.260  23.297  1.00  0.00    +0.000 HD
ENDBRANCH   6  13
BRANCH   3  20
ATOM     20  C   UNL     1     -12.632  13.772  30.684  1.00  0.00    +0.000 C 
ATOM     21  C   UNL     1     -13.875  14.482  30.202  1.00  0.00    +0.000 C 
ATOM     22  C   UNL     1     -13.961  13.539  31.359  1.00  0.00    +0.000 C 
ENDBRANCH   3  20
BRANCH   1  23
ATOM     23  C   UNL     1     -11.092  15.538  34.911  1.00  0.00    +0.000 C 
ATOM     24  O   UNL     1     -11.701  14.730  35.593  1.00  0.00    +0.000 OA
BRANCH  23  25
ATOM     25  O   UNL     1     -10.707  16.717  35.423  1.00  0.00    +0.000 OA
ATOM     26  H   UNL     1     -11.517  17.101  35.815  1.00  0.00    +0.000 HD
ENDBRANCH  23  25
ENDBRANCH   1  23
TORSDOF 4
ENDMDL
MODEL 5
REMARK VINA RESULT:    -7.679      4.175      7.795
REMARK INTER + INTRA:          -9.718
REMARK INTER:                  -9.073
REMARK INTRA:                  -0.645
REMARK UNBOUND:                -0.468
REMARK  Name = 
REMARK  4 active torsions:
REMARK  status: ('A' for Active; 'I' for Inactive)
REMARK    1  A    between atoms: O_1  and  C_2
REMARK    2  A    between atoms: C_2  and  C_4
REMARK    3  A    between atoms: N_6  and  C_7
REMARK    4  A    between atoms: C_12  and  N_13
REMARK                            x       y       z     vdW  Elec       q    Type
REMARK                         _______ _______ _______ _____ _____    ______ ____
ROOT
ATOM      1  C   UNL     1     -12.841  14.643  30.192  1.00  0.00    +0.000 A 
ATOM      2  C   UNL     1     -11.858  15.047  31.010  1.00  0.00    +0.000 A 
ATOM      3  N   UNL     1     -10.717  15.735  30.638  1.00  0.00    +0.000 N 
ATOM      4  C   UNL     1     -10.448  15.929  29.252  1.00  0.00    +0.000 A 
ATOM      5  C   UNL     1      -9.235  16.472  28.782  1.00  0.00    +0.000 A 
ATOM      6  C   UNL     1      -8.971  16.670  27.412  1.00  0.00    +0.000 A 
ATOM      7  C   UNL     1      -9.999  16.313  26.515  1.00  0.00    +0.000 A 
ATOM      8  F   UNL     1      -9.848  16.520  25.197  1.00  0.00    +0.000 F 
ATOM      9  C   UNL     1     -11.205  15.768  26.942  1.00  0.00    +0.000 A 
ATOM     10  C   UNL     1     -11.423  15.569  28.304  1.00  0.00    +0.000 A 
ATOM     11  C   UNL     1     -12.709  14.976  28.754  1.00  0.00    +0.000 A 
ATOM     12  O   UNL     1     -13.613  14.799  27.945  1.00  0.00    +0.000 OA
ENDROOT
BRANCH   6  13
ATOM     13  N   UNL     1      -7.767  17.226  26.944  1.00  0.00    +0.000 N 
ATOM     14  C   UNL     1      -6.585  16.343  27.107  1.00  0.00    +0.000 C 
ATOM     15  C   UNL     1      -5.386  16.885  26.295  1.00  0.00    +0.000 C 
ATOM     16  N   UNL     1      -5.045  18.286  26.609  1.00  0.00    +0.000 NA
ATOM     17  C   UNL     1      -6.247  19.122  26.426  1.00  0.00    +0.000 C 
ATOM     18  C   UNL     1      -7.458  18.638  27.256  1.00  0.00    +0.000 C 
ATOM     19  H   UNL     1      -4.322  18.601  25.962  1.00  0.00    +0.000 HD
ENDBRANCH   6  13
BRANCH   3  20
ATOM     20  C   UNL     1      -9.718  16.041  31.677  1.00  0.00    +0.000 C 
ATOM     21  C   UNL     1      -8.785  14.990  32.233  1.00  0.00    +0.000 C 
ATOM     22  C   UNL     1      -9.873  15.545  33.094  1.00  0.00    +0.000 C 
ENDBRANCH   3  20
BRANCH   1  23
ATOM     23  C   UNL     1     -13.964  13.910  30.787  1.00  0.00    +0.000 C 
ATOM     24  O   UNL     1     -14.424  14.098  31.901  1.00  0.00    +0.000 OA
BRANCH  23  25
ATOM     25  O   UNL     1     -14.428  12.921  30.009  1.00  0.00    +0.000 OA
ATOM     26  H   UNL     1     -14.052  12.101  30.387  1.00  0.00    +0.000 HD
ENDBRANCH  23  25
ENDBRANCH   1  23
TORSDOF 4
ENDMDL
MODEL 6
REMARK VINA RESULT:    -7.389      3.942      7.399
REMARK INTER + INTRA:          -9.369
REMARK INTER:                  -8.778
REMARK INTRA:                  -0.591
REMARK UNBOUND:                -0.468
REMARK  Name = 
REMARK  4 active torsions:
REMARK  status: ('A' for Active; 'I' for Inactive)
REMARK    1  A    between atoms: O_1  and  C_2
REMARK    2  A    between atoms: C_2  and  C_4
REMARK    3  A    between atoms: N_6  and  C_7
REMARK    4  A    between atoms: C_12  and  N_13
REMARK                            x       y       z     vdW  Elec       q    Type
REMARK                         _______ _______ _______ _____ _____    ______ ____
ROOT
ATOM      1  C   UNL     1     -12.037  14.476  32.056  1.00  0.00    +0.000 A 
ATOM      2  C   UNL     1     -12.395  13.735  30.997  1.00  0.00    +0.000 A 
ATOM      3  N   UNL     1     -11.817  13.776  29.740  1.00  0.00    +0.000 N 
ATOM      4  C   UNL     1     -10.845  14.780  29.457  1.00  0.00    +0.000 A 
ATOM      5  C   UNL     1     -10.329  14.994  28.164  1.00  0.00    +0.000 A 
ATOM      6  C   UNL     1      -9.364  15.983  27.885  1.00  0.00    +0.000 A 
ATOM      7  C   UNL     1      -8.914  16.750  28.980  1.00  0.00    +0.000 A 
ATOM      8  F   UNL     1      -7.958  17.676  28.808  1.00  0.00    +0.000 F 
ATOM      9  C   UNL     1      -9.407  16.571  30.268  1.00  0.00    +0.000 A 
ATOM     10  C   UNL     1     -10.375  15.595  30.502  1.00  0.00    +0.000 A 
ATOM     11  C   UNL     1     -10.906  15.416  31.878  1.00  0.00    +0.000 A 
ATOM     12  O   UNL     1     -10.393  16.022  32.812  1.00  0.00    +0.000 OA
ENDROOT
BRANCH   6  13
ATOM     13  N   UNL     1      -8.837  16.187  26.597  1.00  0.00    +0.000 N 
ATOM     14  C   UNL     1      -9.722  15.723  25.498  1.00  0.00    +0.000 C 
ATOM     15  C   UNL     1      -9.224  16.262  24.137  1.00  0.00    +0.000 C 
ATOM     16  N   UNL     1      -7.813  15.937  23.853  1.00  0.00    +0.000 NA
ATOM     17  C   UNL     1      -6.977  16.424  24.967  1.00  0.00    +0.000 C 
ATOM     18  C   UNL     1      -7.416  15.872  26.343  1.00  0.00    +0.000 C 
ATOM     19  H   UNL     1      -7.532  16.414  22.996  1.00  0.00    +0.000 HD
ENDBRANCH   6  13
BRANCH   3  20
ATOM     20  C   UNL     1     -12.390  12.924  28.682  1.00  0.00    +0.000 C 
ATOM     21  C   UNL     1     -13.638  13.311  27.924  1.00  0.00    +0.000 C 
ATOM     22  C   UNL     1     -13.680  12.169  28.887  1.00  0.00    +0.000 C 
ENDBRANCH   3  20
BRANCH   1  23
ATOM     23  C   UNL     1     -12.792  14.291  33.301  1.00  0.00    +0.000 C 
ATOM     24  O   UNL     1     -13.262  13.237  33.697  1.00  0.00    +0.000 OA
BRANCH  23  25
ATOM     25  O   UNL     1     -13.000  15.433  33.972  1.00  0.00    +0.000 OA
ATOM     26  H   UNL     1     -12.546  15.311  34.830  1.00  0.00    +0.000 HD
ENDBRANCH  23  25
ENDBRANCH   1  23
TORSDOF 4
ENDMDL
MODEL 7
REMARK VINA RESULT:    -7.247      3.272      5.544
REMARK INTER + INTRA:          -9.198
REMARK INTER:                  -8.920
REMARK INTRA:                  -0.278
REMARK UNBOUND:                -0.468
REMARK  Name = 
REMARK  4 active torsions:
REMARK  status: ('A' for Active; 'I' for Inactive)
REMARK    1  A    between atoms: O_1  and  C_2
REMARK    2  A    between atoms: C_2  and  C_4
REMARK    3  A    between atoms: N_6  and  C_7
REMARK    4  A    between atoms: C_12  and  N_13
REMARK                            x       y       z     vdW  Elec       q    Type
REMARK                         _______ _______ _______ _____ _____    ______ ____
ROOT
ATOM      1  C   UNL     1      -9.819  16.995  27.952  1.00  0.00    +0.000 A 
ATOM      2  C   UNL     1      -9.604  16.924  29.274  1.00  0.00    +0.000 A 
ATOM      3  N   UNL     1     -10.062  15.930  30.122  1.00  0.00    +0.000 N 
ATOM      4  C   UNL     1     -10.968  14.952  29.617  1.00  0.00    +0.000 A 
ATOM      5  C   UNL     1     -11.607  14.009  30.446  1.00  0.00    +0.000 A 
ATOM      6  C   UNL     1     -12.498  13.038  29.946  1.00  0.00    +0.000 A 
ATOM      7  C   UNL     1     -12.711  13.038  28.552  1.00  0.00    +0.000 A 
ATOM      8  F   UNL     1     -13.504  12.112  27.990  1.00  0.00    +0.000 F 
ATOM      9  C   UNL     1     -12.104  13.959  27.705  1.00  0.00    +0.000 A 
ATOM     10  C   UNL     1     -11.243  14.916  28.238  1.00  0.00    +0.000 A 
ATOM     11  C   UNL     1     -10.605  15.904  27.330  1.00  0.00    +0.000 A 
ATOM     12  O   UNL     1     -10.728  15.783  26.117  1.00  0.00    +0.000 OA
ENDROOT
BRANCH   6  13
ATOM     13  N   UNL     1     -13.123  12.087  30.772  1.00  0.00    +0.000 N 
ATOM     14  C   UNL     1     -13.261  12.508  32.189  1.00  0.00    +0.000 C 
ATOM     15  C   UNL     1     -14.223  11.563  32.945  1.00  0.00    +0.000 C 
ATOM     16  N   UNL     1     -13.849  10.138  32.850  1.00  0.00    +0.000 NA
ATOM     17  C   UNL     1     -13.733   9.769  31.427  1.00  0.00    +0.000 C 
ATOM     18  C   UNL     1     -12.744  10.664  30.645  1.00  0.00    +0.000 C 
ATOM     19  H   UNL     1     -14.585   9.576  33.279  1.00  0.00    +0.000 HD
ENDBRANCH   6  13
BRANCH   3  20
ATOM     20  C   UNL     1      -9.772  16.056  31.562  1.00  0.00    +0.000 C 
ATOM     21  C   UNL     1      -8.462  16.608  32.075  1.00  0.00    +0.000 C 
ATOM     22  C   UNL     1      -8.774  15.156  32.249  1.00  0.00    +0.000 C 
ENDBRANCH   3  20
BRANCH   1  23
ATOM     23  C   UNL     1      -9.256  18.144  27.233  1.00  0.00    +0.000 C 
ATOM     24  O   UNL     1      -8.113  18.557  27.339  1.00  0.00    +0.000 OA
BRANCH  23  25
ATOM     25  O   UNL     1     -10.151  18.784  26.466  1.00  0.00    +0.000 OA
ATOM     26  H   UNL     1     -10.106  18.338  25.597  1.00  0.00    +0.000 HD
ENDBRANCH  23  25
ENDBRANCH   1  23
TORSDOF 4
ENDMDL
MODEL 8
REMARK VINA RESULT:    -7.074      2.790      3.361
REMARK INTER + INTRA:          -8.990
REMARK INTER:                  -8.349
REMARK INTRA:                  -0.641
REMARK UNBOUND:                -0.468
REMARK  Name = 
REMARK  4 active torsions:
REMARK  status: ('A' for Active; 'I' for Inactive)
REMARK    1  A    between atoms: O_1  and  C_2
REMARK    2  A    between atoms: C_2  and  C_4
REMARK    3  A    between atoms: N_6  and  C_7
REMARK    4  A    between atoms: C_12  and  N_13
REMARK                            x       y       z     vdW  Elec       q    Type
REMARK                         _______ _______ _______ _____ _____    ______ ____
ROOT
ATOM      1  C   UNL     1      -6.538  17.710  22.636  1.00  0.00    +0.000 A 
ATOM      2  C   UNL     1      -7.771  17.216  22.821  1.00  0.00    +0.000 A 
ATOM      3  N   UNL     1      -8.345  16.891  24.037  1.00  0.00    +0.000 N 
ATOM      4  C   UNL     1      -7.542  16.933  25.215  1.00  0.00    +0.000 A 
ATOM      5  C   UNL     1      -7.999  16.464  26.463  1.00  0.00    +0.000 A 
ATOM      6  C   UNL     1      -7.207  16.511  27.628  1.00  0.00    +0.000 A 
ATOM      7  C   UNL     1      -5.923  17.076  27.494  1.00  0.00    +0.000 A 
ATOM      8  F   UNL     1      -5.127  17.207  28.567  1.00  0.00    +0.000 F 
ATOM      9  C   UNL     1      -5.436  17.542  26.277  1.00  0.00    +0.000 A 
ATOM     10  C   UNL     1      -6.241  17.462  25.142  1.00  0.00    +0.000 A 
ATOM     11  C   UNL     1      -5.712  17.951  23.842  1.00  0.00    +0.000 A 
ATOM     12  O   UNL     1      -4.640  18.544  23.806  1.00  0.00    +0.000 OA
ENDROOT
BRANCH   6  13
ATOM     13  N   UNL     1      -7.669  16.057  28.876  1.00  0.00    +0.000 N 
ATOM     14  C   UNL     1      -8.341  14.734  28.832  1.00  0.00    +0.000 C 
ATOM     15  C   UNL     1      -8.529  14.172  30.260  1.00  0.00    +0.000 C 
ATOM     16  N   UNL     1      -9.237  15.095  31.170  1.00  0.00    +0.000 NA
ATOM     17  C   UNL     1      -8.528  16.388  31.184  1.00  0.00    +0.000 C 
ATOM     18  C   UNL     1      -8.358  17.005  29.777  1.00  0.00    +0.000 C 
ATOM     19  H   UNL     1      -9.226  14.701  32.111  1.00  0.00    +0.000 HD
ENDBRANCH   6  13
BRANCH   3  20
ATOM     20  C   UNL     1      -9.696  16.301  24.035  1.00  0.00    +0.000 C 
ATOM     21  C   UNL     1      -9.941  14.852  23.683  1.00  0.00    +0.000 C 
ATOM     22  C   UNL     1     -10.393  15.928  22.749  1.00  0.00    +0.000 C 
ENDBRANCH   3  20
BRANCH   1  23
ATOM     23  C   UNL     1      -6.112  17.975  21.257  1.00  0.00    +0.000 C 
ATOM     24  O   UNL     1      -6.855  18.142  20.303  1.00  0.00    +0.000 OA
BRANCH  23  25
ATOM     25  O   UNL     1      -4.781  17.948  21.095  1.00  0.00    +0.000 OA
ATOM     26  H   UNL     1      -4.418  17.802  21.992  1.00  0.00    +0.000 HD
ENDBRANCH  23  25
ENDBRANCH   1  23
TORSDOF 4
ENDMDL
MODEL 9
REMARK VINA RESULT:    -7.040      3.728      6.847
REMARK INTER + INTRA:          -8.949
REMARK INTER:                  -8.942
REMARK INTRA:                  -0.008
REMARK UNBOUND:                -0.468
REMARK  Name = 
REMARK  4 active torsions:
REMARK  status: ('A' for Active; 'I' for Inactive)
REMARK    1  A    between atoms: O_1  and  C_2
REMARK    2  A    between atoms: C_2  and  C_4
REMARK    3  A    between atoms: N_6  and  C_7
REMARK    4  A    between atoms: C_12  and  N_13
REMARK                            x       y       z     vdW  Elec       q    Type
REMARK                         _______ _______ _______ _____ _____    ______ ____
ROOT
ATOM      1  C   UNL     1     -10.441  15.483  27.370  1.00  0.00    +0.000 A 
ATOM      2  C   UNL     1     -10.265  15.512  26.041  1.00  0.00    +0.000 A 
ATOM      3  N   UNL     1      -9.068  15.727  25.381  1.00  0.00    +0.000 N 
ATOM      4  C   UNL     1      -7.917  16.098  26.137  1.00  0.00    +0.000 A 
ATOM      5  C   UNL     1      -6.706  16.492  25.534  1.00  0.00    +0.000 A 
ATOM      6  C   UNL     1      -5.567  16.853  26.282  1.00  0.00    +0.000 A 
ATOM      7  C   UNL     1      -5.687  16.782  27.685  1.00  0.00    +0.000 A 
ATOM      8  F   UNL     1      -4.631  17.058  28.468  1.00  0.00    +0.000 F 
ATOM      9  C   UNL     1      -6.868  16.405  28.314  1.00  0.00    +0.000 A 
ATOM     10  C   UNL     1      -7.980  16.073  27.542  1.00  0.00    +0.000 A 
ATOM     11  C   UNL     1      -9.243  15.682  28.220  1.00  0.00    +0.000 A 
ATOM     12  O   UNL     1      -9.256  15.518  29.435  1.00  0.00    +0.000 OA
ENDROOT
BRANCH   6  13
ATOM     13  N   UNL     1      -4.354  17.231  25.679  1.00  0.00    +0.000 N 
ATOM     14  C   UNL     1      -3.246  16.264  25.885  1.00  0.00    +0.000 C 
ATOM     15  C   UNL     1      -2.062  16.586  24.944  1.00  0.00    +0.000 C 
ATOM     16  N   UNL     1      -1.579  17.977  25.057  1.00  0.00    +0.000 NA
ATOM     17  C   UNL     1      -2.712  18.895  24.838  1.00  0.00    +0.000 C 
ATOM     18  C   UNL     1      -3.901  18.633  25.791  1.00  0.00    +0.000 C 
ATOM     19  H   UNL     1      -0.877  18.140  24.335  1.00  0.00    +0.000 HD
ENDBRANCH   6  13
BRANCH   3  20
ATOM     20  C   UNL     1      -9.084  15.783  23.908  1.00  0.00    +0.000 C 
ATOM     21  C   UNL     1     -10.357  15.614  23.110  1.00  0.00    +0.000 C 
ATOM     22  C   UNL     1      -9.311  14.547  23.073  1.00  0.00    +0.000 C 
ENDBRANCH   3  20
BRANCH   1  23
ATOM     23  C   UNL     1     -11.801  15.255  27.871  1.00  0.00    +0.000 C 
ATOM     24  O   UNL     1     -12.464  14.246  27.692  1.00  0.00    +0.000 OA
BRANCH  23  25
ATOM     25  O   UNL     1     -12.318  16.312  28.513  1.00  0.00    +0.000 OA
ATOM     26  H   UNL     1     -11.931  17.094  28.069  1.00  0.00    +0.000 HD
ENDBRANCH  23  25
ENDBRANCH   1  23
TORSDOF 4
ENDMDL
