MODEL 1
REMARK VINA RESULT:    -6.422      0.000      0.000
REMARK INTER + INTRA:          -8.640
REMARK INTER:                  -8.111
REMARK INTRA:                  -0.529
REMARK UNBOUND:                -0.529
REMARK  Name = 
REMARK  8 active torsions:
REMARK  status: ('A' for Active; 'I' for Inactive)
REMARK    1  A    between atoms: C_1  and  C_2
REMARK    2  A    between atoms: C_2  and  C_3
REMARK    3  A    between atoms: C_2  and  C_4
REMARK    4  A    between atoms: C_4  and  C_5
REMARK    5  A    between atoms: C_8  and  C_11
REMARK    6  A    between atoms: C_11  and  C_12
REMARK    7  A    between atoms: C_11  and  C_13
REMARK    8  A    between atoms: C_13  and  O_15
REMARK                            x       y       z     vdW  Elec       q    Type
REMARK                         _______ _______ _______ _____ _____    ______ ____
ROOT
ATOM      1  C   UNL     1      -9.254  15.109  24.607  1.00  0.00    +0.000 A 
ATOM      2  C   UNL     1      -7.996  14.792  24.086  1.00  0.00    +0.000 A 
ATOM      3  C   UNL     1      -7.676  15.099  22.761  1.00  0.00    +0.000 A 
ATOM      4  C   UNL     1      -8.609  15.728  21.924  1.00  0.00    +0.000 A 
ATOM      5  C   UNL     1      -9.871  16.041  22.451  1.00  0.00    +0.000 A 
ATOM      6  C   UNL     1     -10.190  15.736  23.776  1.00  0.00    +0.000 A 
ENDROOT
BRANCH   4   7
ATOM      7  C   UNL     1      -8.281  16.083  20.482  1.00  0.00    +0.000 C 
ATOM      8  C   UNL     1      -9.494  15.916  19.566  1.00  0.00    +0.000 C 
BRANCH   7   9
ATOM      9  C   UNL     1      -7.718  17.484  20.319  1.00  0.00    +0.000 C 
ATOM     10  O   UNL     1      -7.326  18.247  21.186  1.00  0.00    +0.000 OA
BRANCH   9  11
ATOM     11  O   UNL     1      -7.722  17.888  19.029  1.00  0.00    +0.000 OA
ATOM     12  H   UNL     1      -8.605  18.299  18.919  1.00  0.00    +0.000 HD
ENDBRANCH   9  11
ENDBRANCH   7   9
ENDBRANCH   4   7
BRANCH   1  13
ATOM     13  C   UNL     1      -9.600  14.781  26.041  1.00  0.00    +0.000 C 
BRANCH  13  15
ATOM     14  C   UNL     1     -11.628  14.806  27.522  1.00  0.00    +0.000 C 
ATOM     15  C   UNL     1     -10.725  15.656  26.626  1.00  0.00    +0.000 C 
ATOM     16  C   UNL     1     -10.175  16.842  27.423  1.00  0.00    +0.000 C 
ENDBRANCH  13  15
ENDBRANCH   1  13
TORSDOF 5
ENDMDL
MODEL 2
REMARK VINA RESULT:    -6.192      7.060     10.436
REMARK INTER + INTRA:          -8.349
REMARK INTER:                  -7.836
REMARK INTRA:                  -0.513
REMARK UNBOUND:                -0.529
REMARK  Name = 
REMARK  8 active torsions:
REMARK  status: ('A' for Active; 'I' for Inactive)
REMARK    1  A    between atoms: C_1  and  C_2
REMARK    2  A    between atoms: C_2  and  C_3
REMARK    3  A    between atoms: C_2  and  C_4
REMARK    4  A    between atoms: C_4  and  C_5
REMARK    5  A    between atoms: C_8  and  C_11
REMARK    6  A    between atoms: C_11  and  C_12
REMARK    7  A    between atoms: C_11  and  C_13
REMARK    8  A    between atoms: C_13  and  O_15
REMARK                            x       y       z     vdW  Elec       q    Type
REMARK                         _______ _______ _______ _____ _____    ______ ____
ROOT
ATOM      1  C   UNL     1      -8.361  15.616  30.115  1.00  0.00    +0.000 A 
ATOM      2  C   UNL     1      -8.649  14.420  30.780  1.00  0.00    +0.000 A 
ATOM      3  C   UNL     1      -9.018  14.425  32.127  1.00  0.00    +0.000 A 
ATOM      4  C   UNL     1      -9.105  15.627  32.844  1.00  0.00    +0.000 A 
ATOM      5  C   UNL     1      -8.812  16.824  32.173  1.00  0.00    +0.000 A 
ATOM      6  C   UNL     1      -8.445  16.819  30.826  1.00  0.00    +0.000 A 
ENDROOT
BRANCH   4   7
ATOM      7  C   UNL     1      -9.515  15.660  34.308  1.00  0.00    +0.000 C 
ATOM      8  C   UNL     1      -8.770  16.748  35.083  1.00  0.00    +0.000 C 
BRANCH   7   9
ATOM      9  C   UNL     1     -11.011  15.833  34.511  1.00  0.00    +0.000 C 
ATOM     10  O   UNL     1     -11.908  15.675  33.700  1.00  0.00    +0.000 OA
BRANCH   9  11
ATOM     11  O   UNL     1     -11.310  16.261  35.759  1.00  0.00    +0.000 OA
ATOM     12  H   UNL     1     -10.499  16.057  36.272  1.00  0.00    +0.000 HD
ENDBRANCH   9  11
ENDBRANCH   7   9
ENDBRANCH   4   7
BRANCH   1  13
ATOM     13  C   UNL     1      -7.966  15.612  28.657  1.00  0.00    +0.000 C 
BRANCH  13  15
ATOM     14  C   UNL     1      -5.865  16.736  27.862  1.00  0.00    +0.000 C 
ATOM     15  C   UNL     1      -7.349  16.940  28.176  1.00  0.00    +0.000 C 
ATOM     16  C   UNL     1      -8.066  17.493  26.942  1.00  0.00    +0.000 C 
ENDBRANCH  13  15
ENDBRANCH   1  13
TORSDOF 5
ENDMDL
MODEL 3
REMARK VINA RESULT:    -6.159      3.369      6.311
REMARK INTER + INTRA:          -8.308
REMARK INTER:                  -7.750
REMARK INTRA:                  -0.558
REMARK UNBOUND:                -0.529
REMARK  Name = 
REMARK  8 active torsions:
REMARK  status: ('A' for Active; 'I' for Inactive)
REMARK    1  A    between atoms: C_1  and  C_2
REMARK    2  A    between atoms: C_2  and  C_3
REMARK    3  A    between atoms: C_2  and  C_4
REMARK    4  A    between atoms: C_4  and  C_5
REMARK    5  A    between atoms: C_8  and  C_11
REMARK    6  A    between atoms: C_11  and  C_12
REMARK    7  A    between atoms: C_11  and  C_13
REMARK    8  A    between atoms: C_13  and  O_15
REMARK                            x       y       z     vdW  Elec       q    Type
REMARK                         _______ _______ _______ _____ _____    ______ ____
ROOT
ATOM      1  C   UNL     1      -9.151  15.316  23.672  1.00  0.00    +0.000 A 
ATOM      2  C   UNL     1     -10.344  15.970  23.995  1.00  0.00    +0.000 A 
ATOM      3  C   UNL     1     -10.705  16.173  25.329  1.00  0.00    +0.000 A 
ATOM      4  C   UNL     1      -9.884  15.725  26.372  1.00  0.00    +0.000 A 
ATOM      5  C   UNL     1      -8.689  15.066  26.043  1.00  0.00    +0.000 A 
ATOM      6  C   UNL     1      -8.326  14.865  24.709  1.00  0.00    +0.000 A 
ENDROOT
BRANCH   4   7
ATOM      7  C   UNL     1     -10.249  15.945  27.832  1.00  0.00    +0.000 C 
ATOM      8  C   UNL     1      -9.732  14.815  28.724  1.00  0.00    +0.000 C 
BRANCH   7   9
ATOM      9  C   UNL     1      -9.768  17.277  28.381  1.00  0.00    +0.000 C 
ATOM     10  O   UNL     1      -8.708  17.532  28.929  1.00  0.00    +0.000 OA
BRANCH   9  11
ATOM     11  O   UNL     1     -10.701  18.248  28.253  1.00  0.00    +0.000 OA
ATOM     12  H   UNL     1     -10.660  18.720  29.112  1.00  0.00    +0.000 HD
ENDBRANCH   9  11
ENDBRANCH   7   9
ENDBRANCH   4   7
BRANCH   1  13
ATOM     13  C   UNL     1      -8.757  15.099  22.230  1.00  0.00    +0.000 C 
BRANCH  13  15
ATOM     14  C   UNL     1      -7.757  17.338  21.685  1.00  0.00    +0.000 C 
ATOM     15  C   UNL     1      -8.886  16.359  21.353  1.00  0.00    +0.000 C 
ATOM     16  C   UNL     1      -8.856  16.025  19.858  1.00  0.00    +0.000 C 
ENDBRANCH  13  15
ENDBRANCH   1  13
TORSDOF 5
ENDMDL
MODEL 4
REMARK VINA RESULT:    -6.120      3.056      6.077
REMARK INTER + INTRA:          -8.258
REMARK INTER:                  -7.757
REMARK INTRA:                  -0.501
REMARK UNBOUND:                -0.529
REMARK  Name = 
REMARK  8 active torsions:
REMARK  status: ('A' for Active; 'I' for Inactive)
REMARK    1  A    between atoms: C_1  and  C_2
REMARK    2  A    between atoms: C_2  and  C_3
REMARK    3  A    between atoms: C_2  and  C_4
REMARK    4  A    between atoms: C_4  and  C_5
REMARK    5  A    between atoms: C_8  and  C_11
REMARK    6  A    between atoms: C_11  and  C_12
REMARK    7  A    between atoms: C_11  and  C_13
REMARK    8  A    between atoms: C_13  and  O_15
REMARK                            x       y       z     vdW  Elec       q    Type
REMARK                         _______ _______ _______ _____ _____    ______ ____
ROOT
ATOM      1  C   UNL     1      -8.167  15.883  22.690  1.00  0.00    +0.000 A 
ATOM      2  C   UNL     1      -7.921  17.043  23.432  1.00  0.00    +0.000 A 
ATOM      3  C   UNL     1      -8.612  17.286  24.622  1.00  0.00    +0.000 A 
ATOM      4  C   UNL     1      -9.568  16.377  25.096  1.00  0.00    +0.000 A 
ATOM      5  C   UNL     1      -9.814  15.217  24.346  1.00  0.00    +0.000 A 
ATOM      6  C   UNL     1      -9.121  14.972  23.158  1.00  0.00    +0.000 A 
ENDROOT
BRANCH   4   7
ATOM      7  C   UNL     1     -10.326  16.613  26.394  1.00  0.00    +0.000 C 
ATOM      8  C   UNL     1     -10.670  15.301  27.099  1.00  0.00    +0.000 C 
BRANCH   7   9
ATOM      9  C   UNL     1      -9.594  17.527  27.362  1.00  0.00    +0.000 C 
ATOM     10  O   UNL     1      -8.605  17.281  28.033  1.00  0.00    +0.000 OA
BRANCH   9  11
ATOM     11  O   UNL     1     -10.195  18.732  27.479  1.00  0.00    +0.000 OA
ATOM     12  H   UNL     1     -10.259  19.048  26.553  1.00  0.00    +0.000 HD
ENDBRANCH   9  11
ENDBRANCH   7   9
ENDBRANCH   4   7
BRANCH   1  13
ATOM     13  C   UNL     1      -7.417  15.617  21.406  1.00  0.00    +0.000 C 
BRANCH  13  15
ATOM     14  C   UNL     1      -6.675  16.632  19.231  1.00  0.00    +0.000 C 
ATOM     15  C   UNL     1      -7.816  16.551  20.247  1.00  0.00    +0.000 C 
ATOM     16  C   UNL     1      -9.097  16.085  19.548  1.00  0.00    +0.000 C 
ENDBRANCH  13  15
ENDBRANCH   1  13
TORSDOF 5
ENDMDL
MODEL 5
REMARK VINA RESULT:    -6.067      3.287      6.105
REMARK INTER + INTRA:          -8.191
REMARK INTER:                  -7.770
REMARK INTRA:                  -0.421
REMARK UNBOUND:                -0.529
REMARK  Name = 
REMARK  8 active torsions:
REMARK  status: ('A' for Active; 'I' for Inactive)
REMARK    1  A    between atoms: C_1  and  C_2
REMARK    2  A    between atoms: C_2  and  C_3
REMARK    3  A    between atoms: C_2  and  C_4
REMARK    4  A    between atoms: C_4  and  C_5
REMARK    5  A    between atoms: C_8  and  C_11
REMARK    6  A    between atoms: C_11  and  C_12
REMARK    7  A    between atoms: C_11  and  C_13
REMARK    8  A    between atoms: C_13  and  O_15
REMARK                            x       y       z     vdW  Elec       q    Type
REMARK                         _______ _______ _______ _____ _____    ______ ____
ROOT
ATOM      1  C   UNL     1      -9.223  15.445  22.970  1.00  0.00    +0.000 A 
ATOM      2  C   UNL     1      -8.160  14.836  23.645  1.00  0.00    +0.000 A 
ATOM      3  C   UNL     1      -8.161  14.748  25.040  1.00  0.00    +0.000 A 
ATOM      4  C   UNL     1      -9.223  15.270  25.792  1.00  0.00    +0.000 A 
ATOM      5  C   UNL     1     -10.284  15.883  25.110  1.00  0.00    +0.000 A 
ATOM      6  C   UNL     1     -10.285  15.969  23.715  1.00  0.00    +0.000 A 
ENDROOT
BRANCH   4   7
ATOM      7  C   UNL     1      -9.253  15.177  27.310  1.00  0.00    +0.000 C 
ATOM      8  C   UNL     1     -10.256  14.131  27.796  1.00  0.00    +0.000 C 
BRANCH   7   9
ATOM      9  C   UNL     1      -7.893  14.892  27.924  1.00  0.00    +0.000 C 
ATOM     10  O   UNL     1      -6.998  15.682  28.180  1.00  0.00    +0.000 OA
BRANCH   9  11
ATOM     11  O   UNL     1      -7.700  13.573  28.148  1.00  0.00    +0.000 OA
ATOM     12  H   UNL     1      -7.241  13.267  27.338  1.00  0.00    +0.000 HD
ENDBRANCH   9  11
ENDBRANCH   7   9
ENDBRANCH   4   7
BRANCH   1  13
ATOM     13  C   UNL     1      -9.225  15.537  21.462  1.00  0.00    +0.000 C 
BRANCH  13  15
ATOM     14  C   UNL     1      -8.111  16.352  19.362  1.00  0.00    +0.000 C 
ATOM     15  C   UNL     1      -7.957  16.189  20.876  1.00  0.00    +0.000 C 
ATOM     16  C   UNL     1      -7.663  17.550  21.514  1.00  0.00    +0.000 C 
ENDBRANCH  13  15
ENDBRANCH   1  13
TORSDOF 5
ENDMDL
MODEL 6
REMARK VINA RESULT:    -6.036      6.223      8.848
REMARK INTER + INTRA:          -8.152
REMARK INTER:                  -7.607
REMARK INTRA:                  -0.545
REMARK UNBOUND:                -0.529
REMARK  Name = 
REMARK  8 active torsions:
REMARK  status: ('A' for Active; 'I' for Inactive)
REMARK    1  A    between atoms: C_1  and  C_2
REMARK    2  A    between atoms: C_2  and  C_3
REMARK    3  A    between atoms: C_2  and  C_4
REMARK    4  A    between atoms: C_4  and  C_5
REMARK    5  A    between atoms: C_8  and  C_11
REMARK    6  A    between atoms: C_11  and  C_12
REMARK    7  A    between atoms: C_11  and  C_13
REMARK    8  A    between atoms: C_13  and  O_15
REMARK                            x       y       z     vdW  Elec       q    Type
REMARK                         _______ _______ _______ _____ _____    ______ ____
ROOT
ATOM      1  C   UNL     1     -10.020  14.661  33.243  1.00  0.00    +0.000 A 
ATOM      2  C   UNL     1      -8.837  14.146  32.703  1.00  0.00    +0.000 A 
ATOM      3  C   UNL     1      -8.463  14.447  31.391  1.00  0.00    +0.000 A 
ATOM      4  C   UNL     1      -9.265  15.268  30.586  1.00  0.00    +0.000 A 
ATOM      5  C   UNL     1     -10.453  15.779  31.131  1.00  0.00    +0.000 A 
ATOM      6  C   UNL     1     -10.826  15.480  32.443  1.00  0.00    +0.000 A 
ENDROOT
BRANCH   4   7
ATOM      7  C   UNL     1      -8.874  15.620  29.159  1.00  0.00    +0.000 C 
ATOM      8  C   UNL     1      -7.493  16.274  29.092  1.00  0.00    +0.000 C 
BRANCH   7   9
ATOM      9  C   UNL     1      -8.914  14.434  28.212  1.00  0.00    +0.000 C 
ATOM     10  O   UNL     1      -9.891  13.869  27.748  1.00  0.00    +0.000 OA
BRANCH   9  11
ATOM     11  O   UNL     1      -7.677  13.968  27.924  1.00  0.00    +0.000 OA
ATOM     12  H   UNL     1      -7.739  13.723  26.976  1.00  0.00    +0.000 HD
ENDBRANCH   9  11
ENDBRANCH   7   9
ENDBRANCH   4   7
BRANCH   1  13
ATOM     13  C   UNL     1     -10.424  14.339  34.662  1.00  0.00    +0.000 C 
BRANCH  13  15
ATOM     14  C   UNL     1     -11.023  15.154  36.962  1.00  0.00    +0.000 C 
ATOM     15  C   UNL     1     -10.555  15.579  35.568  1.00  0.00    +0.000 C 
ATOM     16  C   UNL     1      -9.238  16.351  35.679  1.00  0.00    +0.000 C 
ENDBRANCH  13  15
ENDBRANCH   1  13
TORSDOF 5
ENDMDL
MODEL 7
REMARK VINA RESULT:    -5.939      3.739      6.467
REMARK INTER + INTRA:          -8.030
REMARK INTER:                  -7.484
REMARK INTRA:                  -0.546
REMARK UNBOUND:                -0.529
REMARK  Name = 
REMARK  8 active torsions:
REMARK  status: ('A' for Active; 'I' for Inactive)
REMARK    1  A    between atoms: C_1  and  C_2
REMARK    2  A    between atoms: C_2  and  C_3
REMARK    3  A    between atoms: C_2  and  C_4
REMARK    4  A    between atoms: C_4  and  C_5
REMARK    5  A    between atoms: C_8  and  C_11
REMARK    6  A    between atoms: C_11  and  C_12
REMARK    7  A    between atoms: C_11  and  C_13
REMARK    8  A    between atoms: C_13  and  O_15
REMARK                            x       y       z     vdW  Elec       q    Type
REMARK                         _______ _______ _______ _____ _____    ______ ____
ROOT
ATOM      1  C   UNL     1      -9.141  15.291  23.714  1.00  0.00    +0.000 A 
ATOM      2  C   UNL     1      -8.401  14.739  24.764  1.00  0.00    +0.000 A 
ATOM      3  C   UNL     1      -8.820  14.893  26.089  1.00  0.00    +0.000 A 
ATOM      4  C   UNL     1      -9.988  15.605  26.394  1.00  0.00    +0.000 A 
ATOM      5  C   UNL     1     -10.726  16.160  25.337  1.00  0.00    +0.000 A 
ATOM      6  C   UNL     1     -10.308  16.005  24.013  1.00  0.00    +0.000 A 
ENDROOT
BRANCH   4   7
ATOM      7  C   UNL     1     -10.472  15.777  27.826  1.00  0.00    +0.000 C 
ATOM      8  C   UNL     1     -10.327  17.221  28.306  1.00  0.00    +0.000 C 
BRANCH   7   9
ATOM      9  C   UNL     1     -11.905  15.319  28.037  1.00  0.00    +0.000 C 
ATOM     10  O   UNL     1     -12.387  14.218  27.824  1.00  0.00    +0.000 OA
BRANCH   9  11
ATOM     11  O   UNL     1     -12.701  16.320  28.476  1.00  0.00    +0.000 OA
ATOM     12  H   UNL     1     -12.205  17.131  28.235  1.00  0.00    +0.000 HD
ENDBRANCH   9  11
ENDBRANCH   7   9
ENDBRANCH   4   7
BRANCH   1  13
ATOM     13  C   UNL     1      -8.691  15.123  22.282  1.00  0.00    +0.000 C 
BRANCH  13  15
ATOM     14  C   UNL     1      -7.733  17.360  21.658  1.00  0.00    +0.000 C 
ATOM     15  C   UNL     1      -8.886  16.383  21.416  1.00  0.00    +0.000 C 
ATOM     16  C   UNL     1      -8.973  16.047  19.925  1.00  0.00    +0.000 C 
ENDBRANCH  13  15
ENDBRANCH   1  13
TORSDOF 5
ENDMDL
MODEL 8
REMARK VINA RESULT:    -5.880      6.147      8.641
REMARK INTER + INTRA:          -7.956
REMARK INTER:                  -7.401
REMARK INTRA:                  -0.555
REMARK UNBOUND:                -0.529
REMARK  Name = 
REMARK  8 active torsions:
REMARK  status: ('A' for Active; 'I' for Inactive)
REMARK    1  A    between atoms: C_1  and  C_2
REMARK    2  A    between atoms: C_2  and  C_3
REMARK    3  A    between atoms: C_2  and  C_4
REMARK    4  A    between atoms: C_4  and  C_5
REMARK    5  A    between atoms: C_8  and  C_11
REMARK    6  A    between atoms: C_11  and  C_12
REMARK    7  A    between atoms: C_11  and  C_13
REMARK    8  A    between atoms: C_13  and  O_15
REMARK                            x       y       z     vdW  Elec       q    Type
REMARK                         _______ _______ _______ _____ _____    ______ ____
ROOT
ATOM      1  C   UNL     1     -10.160  14.836  32.965  1.00  0.00    +0.000 A 
ATOM      2  C   UNL     1     -11.291  15.439  32.406  1.00  0.00    +0.000 A 
ATOM      3  C   UNL     1     -11.311  15.801  31.056  1.00  0.00    +0.000 A 
ATOM      4  C   UNL     1     -10.199  15.571  30.235  1.00  0.00    +0.000 A 
ATOM      5  C   UNL     1      -9.065  14.969  30.801  1.00  0.00    +0.000 A 
ATOM      6  C   UNL     1      -9.046  14.605  32.150  1.00  0.00    +0.000 A 
ENDROOT
BRANCH   4   7
ATOM      7  C   UNL     1     -10.200  15.945  28.760  1.00  0.00    +0.000 C 
ATOM      8  C   UNL     1     -11.568  15.716  28.117  1.00  0.00    +0.000 C 
BRANCH   7   9
ATOM      9  C   UNL     1      -9.754  17.373  28.500  1.00  0.00    +0.000 C 
ATOM     10  O   UNL     1      -8.617  17.813  28.442  1.00  0.00    +0.000 OA
BRANCH   9  11
ATOM     11  O   UNL     1     -10.801  18.219  28.369  1.00  0.00    +0.000 OA
ATOM     12  H   UNL     1     -11.184  18.253  29.272  1.00  0.00    +0.000 HD
ENDBRANCH   9  11
ENDBRANCH   7   9
ENDBRANCH   4   7
BRANCH   1  13
ATOM     13  C   UNL     1     -10.138  14.440  34.423  1.00  0.00    +0.000 C 
BRANCH  13  15
ATOM     14  C   UNL     1     -10.253  15.127  36.837  1.00  0.00    +0.000 C 
ATOM     15  C   UNL     1     -10.246  15.633  35.393  1.00  0.00    +0.000 C 
ATOM     16  C   UNL     1      -9.102  16.633  35.202  1.00  0.00    +0.000 C 
ENDBRANCH  13  15
ENDBRANCH   1  13
TORSDOF 5
ENDMDL
MODEL 9
REMARK VINA RESULT:    -5.782      4.766      6.064
REMARK INTER + INTRA:          -7.832
REMARK INTER:                  -7.351
REMARK INTRA:                  -0.481
REMARK UNBOUND:                -0.529
REMARK  Name = 
REMARK  8 active torsions:
REMARK  status: ('A' for Active; 'I' for Inactive)
REMARK    1  A    between atoms: C_1  and  C_2
REMARK    2  A    between atoms: C_2  and  C_3
REMARK    3  A    between atoms: C_2  and  C_4
REMARK    4  A    between atoms: C_4  and  C_5
REMARK    5  A    between atoms: C_8  and  C_11
REMARK    6  A    between atoms: C_11  and  C_12
REMARK    7  A    between atoms: C_11  and  C_13
REMARK    8  A    between atoms: C_13  and  O_15
REMARK                            x       y       z     vdW  Elec       q    Type
REMARK                         _______ _______ _______ _____ _____    ______ ____
ROOT
ATOM      1  C   UNL     1     -12.031  15.497  28.164  1.00  0.00    +0.000 A 
ATOM      2  C   UNL     1     -11.048  15.097  27.254  1.00  0.00    +0.000 A 
ATOM      3  C   UNL     1      -9.782  15.690  27.267  1.00  0.00    +0.000 A 
ATOM      4  C   UNL     1      -9.472  16.700  28.188  1.00  0.00    +0.000 A 
ATOM      5  C   UNL     1     -10.463  17.100  29.097  1.00  0.00    +0.000 A 
ATOM      6  C   UNL     1     -11.727  16.506  29.086  1.00  0.00    +0.000 A 
ENDROOT
BRANCH   4   7
ATOM      7  C   UNL     1      -8.098  17.353  28.230  1.00  0.00    +0.000 C 
ATOM      8  C   UNL     1      -6.980  16.317  28.348  1.00  0.00    +0.000 C 
BRANCH   7   9
ATOM      9  C   UNL     1      -7.823  18.257  27.041  1.00  0.00    +0.000 C 
ATOM     10  O   UNL     1      -7.439  17.944  25.926  1.00  0.00    +0.000 OA
BRANCH   9  11
ATOM     11  O   UNL     1      -8.004  19.563  27.341  1.00  0.00    +0.000 OA
ATOM     12  H   UNL     1      -8.826  19.564  27.877  1.00  0.00    +0.000 HD
ENDBRANCH   9  11
ENDBRANCH   7   9
ENDBRANCH   4   7
BRANCH   1  13
ATOM     13  C   UNL     1     -13.398  14.854  28.154  1.00  0.00    +0.000 C 
BRANCH  13  15
ATOM     14  C   UNL     1     -14.477  13.275  29.782  1.00  0.00    +0.000 C 
ATOM     15  C   UNL     1     -13.411  13.410  28.693  1.00  0.00    +0.000 C 
ATOM     16  C   UNL     1     -13.672  12.386  27.585  1.00  0.00    +0.000 C 
ENDBRANCH  13  15
ENDBRANCH   1  13
TORSDOF 5
ENDMDL
