MODEL 1
REMARK VINA RESULT:    -3.064      0.000      0.000
REMARK INTER + INTRA:          -3.422
REMARK INTER:                  -3.422
REMARK INTRA:                   0.000
REMARK UNBOUND:                 0.000
REMARK  Name = 
REMARK  3 active torsions:
REMARK  status: ('A' for Active; 'I' for Inactive)
REMARK    1  A    between atoms: N_1  and  CA_2
REMARK    2  A    between atoms: CA_2  and  C_3
REMARK    3  A    between atoms: C_3  and  OXT_5
REMARK                            x       y       z     vdW  Elec       q    Type
REMARK                         _______ _______ _______ _____ _____    ______ ____
ROOT
ATOM      1  CA  GLY A   1      -9.977  17.566  27.825  1.00  0.00    +0.000 C 
ENDROOT
BRANCH   1   2
ATOM      2  N   GLY A   1     -10.042  18.908  27.218  1.00  0.00    +0.000 NA
ATOM      3  H1  GLY A   1      -9.760  18.825  26.238  1.00  0.00    +0.000 HD
ATOM      4  H2  GLY A   1     -11.024  19.186  27.167  1.00  0.00    +0.000 HD
ENDBRANCH   1   2
BRANCH   1   5
ATOM      5  C   GLY A   1     -10.693  17.537  29.168  1.00  0.00    +0.000 C 
ATOM      6  O   GLY A   1     -10.309  16.986  30.188  1.00  0.00    +0.000 OA
BRANCH   5   7
ATOM      7  OXT GLY A   1     -11.859  18.212  29.149  1.00  0.00    +0.000 OA
ATOM      8  HXT GLY A   1     -12.541  17.509  29.097  1.00  0.00    +0.000 HD
ENDBRANCH   5   7
ENDBRANCH   1   5
TORSDOF 3
ENDMDL
MODEL 2
REMARK VINA RESULT:    -3.009      2.716      3.093
REMARK INTER + INTRA:          -3.361
REMARK INTER:                  -3.361
REMARK INTRA:                   0.000
REMARK UNBOUND:                 0.000
REMARK  Name = 
REMARK  3 active torsions:
REMARK  status: ('A' for Active; 'I' for Inactive)
REMARK    1  A    between atoms: N_1  and  CA_2
REMARK    2  A    between atoms: CA_2  and  C_3
REMARK    3  A    between atoms: C_3  and  OXT_5
REMARK                            x       y       z     vdW  Elec       q    Type
REMARK                         _______ _______ _______ _____ _____    ______ ____
ROOT
ATOM      1  CA  GLY A   1      -7.981  18.311  26.692  1.00  0.00    +0.000 C 
ENDROOT
BRANCH   1   2
ATOM      2  N   GLY A   1      -7.654  19.561  27.404  1.00  0.00    +0.000 NA
ATOM      3  H1  GLY A   1      -7.865  19.424  28.396  1.00  0.00    +0.000 HD
ATOM      4  H2  GLY A   1      -6.640  19.681  27.384  1.00  0.00    +0.000 HD
ENDBRANCH   1   2
BRANCH   1   5
ATOM      5  C   GLY A   1      -9.484  18.166  26.502  1.00  0.00    +0.000 C 
ATOM      6  O   GLY A   1     -10.052  17.395  25.744  1.00  0.00    +0.000 OA
BRANCH   5   7
ATOM      7  OXT GLY A   1     -10.189  19.005  27.285  1.00  0.00    +0.000 OA
ATOM      8  HXT GLY A   1     -10.731  19.525  26.653  1.00  0.00    +0.000 HD
ENDBRANCH   5   7
ENDBRANCH   1   5
TORSDOF 3
ENDMDL
MODEL 3
REMARK VINA RESULT:    -2.978      3.319      3.566
REMARK INTER + INTRA:          -3.326
REMARK INTER:                  -3.326
REMARK INTRA:                   0.000
REMARK UNBOUND:                 0.000
REMARK  Name = 
REMARK  3 active torsions:
REMARK  status: ('A' for Active; 'I' for Inactive)
REMARK    1  A    between atoms: N_1  and  CA_2
REMARK    2  A    between atoms: CA_2  and  C_3
REMARK    3  A    between atoms: C_3  and  OXT_5
REMARK                            x       y       z     vdW  Elec       q    Type
REMARK                         _______ _______ _______ _____ _____    ______ ____
ROOT
ATOM      1  CA  GLY A   1      -9.554  18.187  26.463  1.00  0.00    +0.000 C 
ENDROOT
BRANCH   1   2
ATOM      2  N   GLY A   1     -10.325  18.561  27.664  1.00  0.00    +0.000 NA
ATOM      3  H1  GLY A   1     -10.703  19.500  27.516  1.00  0.00    +0.000 HD
ATOM      4  H2  GLY A   1     -11.155  17.967  27.705  1.00  0.00    +0.000 HD
ENDBRANCH   1   2
BRANCH   1   5
ATOM      5  C   GLY A   1      -8.064  18.409  26.678  1.00  0.00    +0.000 C 
ATOM      6  O   GLY A   1      -7.159  17.656  26.353  1.00  0.00    +0.000 OA
BRANCH   5   7
ATOM      7  OXT GLY A   1      -7.797  19.578  27.293  1.00  0.00    +0.000 OA
ATOM      8  HXT GLY A   1      -8.659  19.851  27.674  1.00  0.00    +0.000 HD
ENDBRANCH   5   7
ENDBRANCH   1   5
TORSDOF 3
ENDMDL
MODEL 4
REMARK VINA RESULT:    -2.977      2.467      2.647
REMARK INTER + INTRA:          -3.325
REMARK INTER:                  -3.325
REMARK INTRA:                   0.000
REMARK UNBOUND:                 0.000
REMARK  Name = 
REMARK  3 active torsions:
REMARK  status: ('A' for Active; 'I' for Inactive)
REMARK    1  A    between atoms: N_1  and  CA_2
REMARK    2  A    between atoms: CA_2  and  C_3
REMARK    3  A    between atoms: C_3  and  OXT_5
REMARK                            x       y       z     vdW  Elec       q    Type
REMARK                         _______ _______ _______ _____ _____    ______ ____
ROOT
ATOM      1  CA  GLY A   1     -10.410  17.312  28.604  1.00  0.00    +0.000 C 
ENDROOT
BRANCH   1   2
ATOM      2  N   GLY A   1     -11.456  18.212  29.124  1.00  0.00    +0.000 NA
ATOM      3  H1  GLY A   1     -11.957  18.608  28.325  1.00  0.00    +0.000 HD
ATOM      4  H2  GLY A   1     -12.160  17.640  29.595  1.00  0.00    +0.000 HD
ENDBRANCH   1   2
BRANCH   1   5
ATOM      5  C   GLY A   1      -9.827  17.843  27.302  1.00  0.00    +0.000 C 
ATOM      6  O   GLY A   1      -9.305  17.187  26.415  1.00  0.00    +0.000 OA
BRANCH   5   7
ATOM      7  OXT GLY A   1      -9.940  19.181  27.192  1.00  0.00    +0.000 OA
ATOM      8  HXT GLY A   1     -10.811  19.314  26.762  1.00  0.00    +0.000 HD
ENDBRANCH   5   7
ENDBRANCH   1   5
TORSDOF 3
ENDMDL
MODEL 5
REMARK VINA RESULT:    -2.912      2.121      2.294
REMARK INTER + INTRA:          -3.252
REMARK INTER:                  -3.252
REMARK INTRA:                   0.000
REMARK UNBOUND:                 0.000
REMARK  Name = 
REMARK  3 active torsions:
REMARK  status: ('A' for Active; 'I' for Inactive)
REMARK    1  A    between atoms: N_1  and  CA_2
REMARK    2  A    between atoms: CA_2  and  C_3
REMARK    3  A    between atoms: C_3  and  OXT_5
REMARK                            x       y       z     vdW  Elec       q    Type
REMARK                         _______ _______ _______ _____ _____    ______ ____
ROOT
ATOM      1  CA  GLY A   1     -10.976  17.000  29.612  1.00  0.00    +0.000 C 
ENDROOT
BRANCH   1   2
ATOM      2  N   GLY A   1     -11.234  18.231  28.842  1.00  0.00    +0.000 NA
ATOM      3  H1  GLY A   1     -11.775  17.977  28.012  1.00  0.00    +0.000 HD
ATOM      4  H2  GLY A   1     -11.876  18.814  29.383  1.00  0.00    +0.000 HD
ENDBRANCH   1   2
BRANCH   1   5
ATOM      5  C   GLY A   1     -12.060  15.961  29.364  1.00  0.00    +0.000 C 
ATOM      6  O   GLY A   1     -12.034  14.785  29.694  1.00  0.00    +0.000 OA
BRANCH   5   7
ATOM      7  OXT GLY A   1     -13.124  16.468  28.712  1.00  0.00    +0.000 OA
ATOM      8  HXT GLY A   1     -13.722  15.700  28.594  1.00  0.00    +0.000 HD
ENDBRANCH   5   7
ENDBRANCH   1   5
TORSDOF 3
ENDMDL
MODEL 6
REMARK VINA RESULT:    -2.780      5.911      6.271
REMARK INTER + INTRA:          -3.106
REMARK INTER:                  -3.106
REMARK INTRA:                   0.000
REMARK UNBOUND:                 0.000
REMARK  Name = 
REMARK  3 active torsions:
REMARK  status: ('A' for Active; 'I' for Inactive)
REMARK    1  A    between atoms: N_1  and  CA_2
REMARK    2  A    between atoms: CA_2  and  C_3
REMARK    3  A    between atoms: C_3  and  OXT_5
REMARK                            x       y       z     vdW  Elec       q    Type
REMARK                         _______ _______ _______ _____ _____    ______ ____
ROOT
ATOM      1  CA  GLY A   1      -9.628  15.919  33.618  1.00  0.00    +0.000 C 
ENDROOT
BRANCH   1   2
ATOM      2  N   GLY A   1      -8.399  16.536  33.085  1.00  0.00    +0.000 NA
ATOM      3  H1  GLY A   1      -8.658  17.416  32.634  1.00  0.00    +0.000 HD
ATOM      4  H2  GLY A   1      -7.822  16.828  33.877  1.00  0.00    +0.000 HD
ENDBRANCH   1   2
BRANCH   1   5
ATOM      5  C   GLY A   1      -9.973  16.481  34.990  1.00  0.00    +0.000 C 
ATOM      6  O   GLY A   1     -11.088  16.585  35.477  1.00  0.00    +0.000 OA
BRANCH   5   7
ATOM      7  OXT GLY A   1      -8.883  16.880  35.675  1.00  0.00    +0.000 OA
ATOM      8  HXT GLY A   1      -8.516  16.050  36.047  1.00  0.00    +0.000 HD
ENDBRANCH   5   7
ENDBRANCH   1   5
TORSDOF 3
ENDMDL
MODEL 7
REMARK VINA RESULT:    -2.780      6.325      6.747
REMARK INTER + INTRA:          -3.105
REMARK INTER:                  -3.105
REMARK INTRA:                   0.000
REMARK UNBOUND:                 0.000
REMARK  Name = 
REMARK  3 active torsions:
REMARK  status: ('A' for Active; 'I' for Inactive)
REMARK    1  A    between atoms: N_1  and  CA_2
REMARK    2  A    between atoms: CA_2  and  C_3
REMARK    3  A    between atoms: C_3  and  OXT_5
REMARK                            x       y       z     vdW  Elec       q    Type
REMARK                         _______ _______ _______ _____ _____    ______ ____
ROOT
ATOM      1  CA  GLY A   1     -12.655  15.150  33.311  1.00  0.00    +0.000 C 
ENDROOT
BRANCH   1   2
ATOM      2  N   GLY A   1     -14.079  15.518  33.201  1.00  0.00    +0.000 NA
ATOM      3  H1  GLY A   1     -14.133  16.525  33.029  1.00  0.00    +0.000 HD
ATOM      4  H2  GLY A   1     -14.449  15.104  32.343  1.00  0.00    +0.000 HD
ENDBRANCH   1   2
BRANCH   1   5
ATOM      5  C   GLY A   1     -12.153  15.323  34.737  1.00  0.00    +0.000 C 
ATOM      6  O   GLY A   1     -11.389  16.185  35.142  1.00  0.00    +0.000 OA
BRANCH   5   7
ATOM      7  OXT GLY A   1     -12.647  14.392  35.577  1.00  0.00    +0.000 OA
ATOM      8  HXT GLY A   1     -11.900  14.194  36.181  1.00  0.00    +0.000 HD
ENDBRANCH   5   7
ENDBRANCH   1   5
TORSDOF 3
ENDMDL
MODEL 8
REMARK VINA RESULT:    -2.732      5.131      5.375
REMARK INTER + INTRA:          -3.051
REMARK INTER:                  -3.051
REMARK INTRA:                   0.000
REMARK UNBOUND:                 0.000
REMARK  Name = 
REMARK  3 active torsions:
REMARK  status: ('A' for Active; 'I' for Inactive)
REMARK    1  A    between atoms: N_1  and  CA_2
REMARK    2  A    between atoms: CA_2  and  C_3
REMARK    3  A    between atoms: C_3  and  OXT_5
REMARK                            x       y       z     vdW  Elec       q    Type
REMARK                         _______ _______ _______ _____ _____    ______ ____
ROOT
ATOM      1  CA  GLY A   1     -12.200  14.833  32.096  1.00  0.00    +0.000 C 
ENDROOT
BRANCH   1   2
ATOM      2  N   GLY A   1     -11.950  15.856  31.064  1.00  0.00    +0.000 NA
ATOM      3  H1  GLY A   1     -12.706  15.803  30.377  1.00  0.00    +0.000 HD
ATOM      4  H2  GLY A   1     -12.074  16.775  31.493  1.00  0.00    +0.000 HD
ENDBRANCH   1   2
BRANCH   1   5
ATOM      5  C   GLY A   1     -13.691  14.662  32.350  1.00  0.00    +0.000 C 
ATOM      6  O   GLY A   1     -14.424  13.819  31.856  1.00  0.00    +0.000 OA
BRANCH   5   7
ATOM      7  OXT GLY A   1     -14.176  15.570  33.219  1.00  0.00    +0.000 OA
ATOM      8  HXT GLY A   1     -13.561  15.524  33.982  1.00  0.00    +0.000 HD
ENDBRANCH   5   7
ENDBRANCH   1   5
TORSDOF 3
ENDMDL
MODEL 9
REMARK VINA RESULT:    -2.605      4.958      5.335
REMARK INTER + INTRA:          -2.910
REMARK INTER:                  -2.910
REMARK INTRA:                   0.000
REMARK UNBOUND:                 0.000
REMARK  Name = 
REMARK  3 active torsions:
REMARK  status: ('A' for Active; 'I' for Inactive)
REMARK    1  A    between atoms: N_1  and  CA_2
REMARK    2  A    between atoms: CA_2  and  C_3
REMARK    3  A    between atoms: C_3  and  OXT_5
REMARK                            x       y       z     vdW  Elec       q    Type
REMARK                         _______ _______ _______ _____ _____    ______ ____
ROOT
ATOM      1  CA  GLY A   1     -13.303  14.579  32.634  1.00  0.00    +0.000 C 
ENDROOT
BRANCH   1   2
ATOM      2  N   GLY A   1     -14.292  15.570  33.096  1.00  0.00    +0.000 NA
ATOM      3  H1  GLY A   1     -14.597  15.299  34.034  1.00  0.00    +0.000 HD
ATOM      4  H2  GLY A   1     -13.806  16.457  33.244  1.00  0.00    +0.000 HD
ENDBRANCH   1   2
BRANCH   1   5
ATOM      5  C   GLY A   1     -12.009  15.256  32.202  1.00  0.00    +0.000 C 
ATOM      6  O   GLY A   1     -10.963  15.298  32.830  1.00  0.00    +0.000 OA
BRANCH   5   7
ATOM      7  OXT GLY A   1     -12.110  15.843  30.994  1.00  0.00    +0.000 OA
ATOM      8  HXT GLY A   1     -11.352  15.483  30.487  1.00  0.00    +0.000 HD
ENDBRANCH   5   7
ENDBRANCH   1   5
TORSDOF 3
ENDMDL
