MODEL 1
REMARK VINA RESULT:    -8.271      0.000      0.000
REMARK INTER + INTRA:         -11.280
REMARK INTER:                 -10.447
REMARK INTRA:                  -0.834
REMARK UNBOUND:                -0.834
REMARK  Name = 
REMARK  6 active torsions:
REMARK  status: ('A' for Active; 'I' for Inactive)
REMARK    1  A    between atoms: C_1  and  C_2
REMARK    2  A    between atoms: C_2  and  C_4
REMARK    3  A    between atoms: C_4  and  C_5
REMARK    4  A    between atoms: C_5  and  C_6
REMARK    5  A    between atoms: C_5  and  C_12
REMARK    6  A    between atoms: C_13  and  O_14
REMARK                            x       y       z     vdW  Elec       q    Type
REMARK                         _______ _______ _______ _____ _____    ______ ____
ROOT
ATOM      1  C   UNL     1      -9.860  14.969  27.520  1.00  0.00    +0.000 A 
ATOM      2  C   UNL     1     -10.511  15.422  26.434  1.00  0.00    +0.000 A 
ATOM      3  C   UNL     1      -9.906  15.365  25.101  1.00  0.00    +0.000 A 
ATOM      4  C   UNL     1     -10.473  15.931  23.951  1.00  0.00    +0.000 A 
ATOM      5  C   UNL     1      -9.836  15.815  22.710  1.00  0.00    +0.000 A 
ATOM      6  C   UNL     1      -8.619  15.143  22.604  1.00  0.00    +0.000 A 
ATOM      7  C   UNL     1      -8.030  14.600  23.741  1.00  0.00    +0.000 A 
ATOM      8  C   UNL     1      -8.677  14.726  24.971  1.00  0.00    +0.000 A 
ATOM      9  O   UNL     1      -8.011  14.204  26.090  1.00  0.00    +0.000 OA
ATOM     10  C   UNL     1      -8.508  14.369  27.373  1.00  0.00    +0.000 A 
ATOM     11  O   UNL     1      -7.856  13.999  28.346  1.00  0.00    +0.000 OA
ENDROOT
BRANCH   2  12
ATOM     12  O   UNL     1     -11.789  15.934  26.532  1.00  0.00    +0.000 OA
ATOM     13  H   UNL     1     -12.398  15.198  26.709  1.00  0.00    +0.000 HD
ENDBRANCH   2  12
BRANCH   1  14
ATOM     14  C   UNL     1     -10.407  15.006  28.946  1.00  0.00    +0.000 C 
BRANCH  14  15
ATOM     15  C   UNL     1     -11.689  14.181  29.082  1.00  0.00    +0.000 A 
ATOM     16  C   UNL     1     -12.803  14.758  29.718  1.00  0.00    +0.000 A 
ATOM     17  C   UNL     1     -13.991  14.042  29.874  1.00  0.00    +0.000 A 
ATOM     18  C   UNL     1     -14.084  12.737  29.399  1.00  0.00    +0.000 A 
ATOM     19  C   UNL     1     -12.989  12.147  28.773  1.00  0.00    +0.000 A 
ATOM     20  C   UNL     1     -11.799  12.862  28.617  1.00  0.00    +0.000 A 
ENDBRANCH  14  15
BRANCH  14  21
ATOM     21  C   UNL     1     -10.503  16.433  29.520  1.00  0.00    +0.000 C 
BRANCH  21  23
ATOM     22  C   UNL     1      -8.763  16.640  31.419  1.00  0.00    +0.000 C 
ATOM     23  C   UNL     1      -9.151  16.928  29.991  1.00  0.00    +0.000 C 
ATOM     24  O   UNL     1      -8.382  17.516  29.229  1.00  0.00    +0.000 OA
ENDBRANCH  21  23
ENDBRANCH  14  21
ENDBRANCH   1  14
TORSDOF 5
ENDMDL
MODEL 2
REMARK VINA RESULT:    -7.989      2.538      6.128
REMARK INTER + INTRA:         -10.924
REMARK INTER:                 -10.294
REMARK INTRA:                  -0.630
REMARK UNBOUND:                -0.834
REMARK  Name = 
REMARK  6 active torsions:
REMARK  status: ('A' for Active; 'I' for Inactive)
REMARK    1  A    between atoms: C_1  and  C_2
REMARK    2  A    between atoms: C_2  and  C_4
REMARK    3  A    between atoms: C_4  and  C_5
REMARK    4  A    between atoms: C_5  and  C_6
REMARK    5  A    between atoms: C_5  and  C_12
REMARK    6  A    between atoms: C_13  and  O_14
REMARK                            x       y       z     vdW  Elec       q    Type
REMARK                         _______ _______ _______ _____ _____    ______ ____
ROOT
ATOM      1  C   UNL     1      -8.606  16.854  27.402  1.00  0.00    +0.000 A 
ATOM      2  C   UNL     1      -8.263  15.832  28.205  1.00  0.00    +0.000 A 
ATOM      3  C   UNL     1      -8.935  15.609  29.488  1.00  0.00    +0.000 A 
ATOM      4  C   UNL     1      -8.545  14.644  30.427  1.00  0.00    +0.000 A 
ATOM      5  C   UNL     1      -9.256  14.484  31.623  1.00  0.00    +0.000 A 
ATOM      6  C   UNL     1     -10.357  15.293  31.900  1.00  0.00    +0.000 A 
ATOM      7  C   UNL     1     -10.740  16.273  30.991  1.00  0.00    +0.000 A 
ATOM      8  C   UNL     1     -10.019  16.421  29.804  1.00  0.00    +0.000 A 
ATOM      9  O   UNL     1     -10.419  17.459  28.949  1.00  0.00    +0.000 OA
ATOM     10  C   UNL     1      -9.710  17.767  27.799  1.00  0.00    +0.000 A 
ATOM     11  O   UNL     1     -10.014  18.746  27.123  1.00  0.00    +0.000 OA
ENDROOT
BRANCH   2  12
ATOM     12  O   UNL     1      -7.279  14.936  27.838  1.00  0.00    +0.000 OA
ATOM     13  H   UNL     1      -7.694  14.222  27.327  1.00  0.00    +0.000 HD
ENDBRANCH   2  12
BRANCH   1  14
ATOM     14  C   UNL     1      -7.948  17.170  26.060  1.00  0.00    +0.000 C 
BRANCH  14  15
ATOM     15  C   UNL     1      -8.405  16.205  24.964  1.00  0.00    +0.000 A 
ATOM     16  C   UNL     1      -9.771  16.149  24.635  1.00  0.00    +0.000 A 
ATOM     17  C   UNL     1     -10.236  15.278  23.648  1.00  0.00    +0.000 A 
ATOM     18  C   UNL     1      -9.344  14.447  22.976  1.00  0.00    +0.000 A 
ATOM     19  C   UNL     1      -7.989  14.483  23.294  1.00  0.00    +0.000 A 
ATOM     20  C   UNL     1      -7.521  15.354  24.282  1.00  0.00    +0.000 A 
ENDBRANCH  14  15
BRANCH  14  21
ATOM     21  C   UNL     1      -6.419  17.341  26.162  1.00  0.00    +0.000 C 
BRANCH  21  23
ATOM     22  C   UNL     1      -5.071  19.479  25.624  1.00  0.00    +0.000 C 
ATOM     23  C   UNL     1      -6.048  18.766  26.523  1.00  0.00    +0.000 C 
ATOM     24  O   UNL     1      -6.550  19.332  27.494  1.00  0.00    +0.000 OA
ENDBRANCH  21  23
ENDBRANCH  14  21
ENDBRANCH   1  14
TORSDOF 5
ENDMDL
MODEL 3
REMARK VINA RESULT:    -7.940      1.662      5.760
REMARK INTER + INTRA:         -10.862
REMARK INTER:                 -10.138
REMARK INTRA:                  -0.725
REMARK UNBOUND:                -0.834
REMARK  Name = 
REMARK  6 active torsions:
REMARK  status: ('A' for Active; 'I' for Inactive)
REMARK    1  A    between atoms: C_1  and  C_2
REMARK    2  A    between atoms: C_2  and  C_4
REMARK    3  A    between atoms: C_4  and  C_5
REMARK    4  A    between atoms: C_5  and  C_6
REMARK    5  A    between atoms: C_5  and  C_12
REMARK    6  A    between atoms: C_13  and  O_14
REMARK                            x       y       z     vdW  Elec       q    Type
REMARK                         _______ _______ _______ _____ _____    ______ ____
ROOT
ATOM      1  C   UNL     1     -10.475  15.555  28.053  1.00  0.00    +0.000 A 
ATOM      2  C   UNL     1     -10.873  14.275  28.149  1.00  0.00    +0.000 A 
ATOM      3  C   UNL     1     -12.077  13.903  28.896  1.00  0.00    +0.000 A 
ATOM      4  C   UNL     1     -12.479  12.582  29.141  1.00  0.00    +0.000 A 
ATOM      5  C   UNL     1     -13.656  12.314  29.850  1.00  0.00    +0.000 A 
ATOM      6  C   UNL     1     -14.440  13.361  30.333  1.00  0.00    +0.000 A 
ATOM      7  C   UNL     1     -14.040  14.676  30.122  1.00  0.00    +0.000 A 
ATOM      8  C   UNL     1     -12.863  14.926  29.415  1.00  0.00    +0.000 A 
ATOM      9  O   UNL     1     -12.484  16.270  29.278  1.00  0.00    +0.000 OA
ATOM     10  C   UNL     1     -11.280  16.629  28.692  1.00  0.00    +0.000 A 
ATOM     11  O   UNL     1     -10.919  17.803  28.679  1.00  0.00    +0.000 OA
ENDROOT
BRANCH   2  12
ATOM     12  O   UNL     1     -10.175  13.263  27.521  1.00  0.00    +0.000 OA
ATOM     13  H   UNL     1      -9.245  13.535  27.450  1.00  0.00    +0.000 HD
ENDBRANCH   2  12
BRANCH   1  14
ATOM     14  C   UNL     1      -9.226  16.029  27.312  1.00  0.00    +0.000 C 
BRANCH  14  15
ATOM     15  C   UNL     1      -9.290  15.689  25.820  1.00  0.00    +0.000 A 
ATOM     16  C   UNL     1      -8.239  14.950  25.248  1.00  0.00    +0.000 A 
ATOM     17  C   UNL     1      -8.249  14.624  23.891  1.00  0.00    +0.000 A 
ATOM     18  C   UNL     1      -9.307  15.034  23.083  1.00  0.00    +0.000 A 
ATOM     19  C   UNL     1     -10.351  15.773  23.631  1.00  0.00    +0.000 A 
ATOM     20  C   UNL     1     -10.343  16.102  24.990  1.00  0.00    +0.000 A 
ENDBRANCH  14  15
BRANCH  14  21
ATOM     21  C   UNL     1      -7.915  15.610  28.005  1.00  0.00    +0.000 C 
BRANCH  21  23
ATOM     22  C   UNL     1      -7.338  18.106  27.666  1.00  0.00    +0.000 C 
ATOM     23  C   UNL     1      -6.862  16.694  27.890  1.00  0.00    +0.000 C 
ATOM     24  O   UNL     1      -5.663  16.437  28.008  1.00  0.00    +0.000 OA
ENDBRANCH  21  23
ENDBRANCH  14  21
ENDBRANCH   1  14
TORSDOF 5
ENDMDL
MODEL 4
REMARK VINA RESULT:    -7.830      2.201      5.602
REMARK INTER + INTRA:         -10.723
REMARK INTER:                  -9.795
REMARK INTRA:                  -0.928
REMARK UNBOUND:                -0.834
REMARK  Name = 
REMARK  6 active torsions:
REMARK  status: ('A' for Active; 'I' for Inactive)
REMARK    1  A    between atoms: C_1  and  C_2
REMARK    2  A    between atoms: C_2  and  C_4
REMARK    3  A    between atoms: C_4  and  C_5
REMARK    4  A    between atoms: C_5  and  C_6
REMARK    5  A    between atoms: C_5  and  C_12
REMARK    6  A    between atoms: C_13  and  O_14
REMARK                            x       y       z     vdW  Elec       q    Type
REMARK                         _______ _______ _______ _____ _____    ______ ____
ROOT
ATOM      1  C   UNL     1     -10.147  15.943  28.826  1.00  0.00    +0.000 A 
ATOM      2  C   UNL     1     -10.302  14.668  28.428  1.00  0.00    +0.000 A 
ATOM      3  C   UNL     1     -11.628  14.051  28.341  1.00  0.00    +0.000 A 
ATOM      4  C   UNL     1     -11.853  12.697  28.056  1.00  0.00    +0.000 A 
ATOM      5  C   UNL     1     -13.156  12.192  27.973  1.00  0.00    +0.000 A 
ATOM      6  C   UNL     1     -14.250  13.029  28.184  1.00  0.00    +0.000 A 
ATOM      7  C   UNL     1     -14.043  14.370  28.494  1.00  0.00    +0.000 A 
ATOM      8  C   UNL     1     -12.738  14.857  28.575  1.00  0.00    +0.000 A 
ATOM      9  O   UNL     1     -12.589  16.203  28.941  1.00  0.00    +0.000 OA
ATOM     10  C   UNL     1     -11.340  16.763  29.159  1.00  0.00    +0.000 A 
ATOM     11  O   UNL     1     -11.238  17.911  29.583  1.00  0.00    +0.000 OA
ENDROOT
BRANCH   2  12
ATOM     12  O   UNL     1      -9.216  13.898  28.061  1.00  0.00    +0.000 OA
ATOM     13  H   UNL     1      -9.152  13.151  28.678  1.00  0.00    +0.000 HD
ENDBRANCH   2  12
BRANCH   1  14
ATOM     14  C   UNL     1      -8.804  16.658  28.963  1.00  0.00    +0.000 C 
BRANCH  14  15
ATOM     15  C   UNL     1      -8.176  16.951  27.598  1.00  0.00    +0.000 A 
ATOM     16  C   UNL     1      -6.861  16.518  27.348  1.00  0.00    +0.000 A 
ATOM     17  C   UNL     1      -6.244  16.771  26.122  1.00  0.00    +0.000 A 
ATOM     18  C   UNL     1      -6.929  17.462  25.127  1.00  0.00    +0.000 A 
ATOM     19  C   UNL     1      -8.229  17.905  25.359  1.00  0.00    +0.000 A 
ATOM     20  C   UNL     1      -8.848  17.654  26.587  1.00  0.00    +0.000 A 
ENDBRANCH  14  15
BRANCH  14  21
ATOM     21  C   UNL     1      -7.854  15.975  29.967  1.00  0.00    +0.000 C 
BRANCH  21  23
ATOM     22  C   UNL     1      -8.787  14.619  31.959  1.00  0.00    +0.000 C 
ATOM     23  C   UNL     1      -8.447  15.960  31.362  1.00  0.00    +0.000 C 
ATOM     24  O   UNL     1      -8.615  17.001  31.997  1.00  0.00    +0.000 OA
ENDBRANCH  21  23
ENDBRANCH  14  21
ENDBRANCH   1  14
TORSDOF 5
ENDMDL
MODEL 5
REMARK VINA RESULT:    -7.798      3.084      5.113
REMARK INTER + INTRA:         -10.683
REMARK INTER:                  -9.882
REMARK INTRA:                  -0.801
REMARK UNBOUND:                -0.834
REMARK  Name = 
REMARK  6 active torsions:
REMARK  status: ('A' for Active; 'I' for Inactive)
REMARK    1  A    between atoms: C_1  and  C_2
REMARK    2  A    between atoms: C_2  and  C_4
REMARK    3  A    between atoms: C_4  and  C_5
REMARK    4  A    between atoms: C_5  and  C_6
REMARK    5  A    between atoms: C_5  and  C_12
REMARK    6  A    between atoms: C_13  and  O_14
REMARK                            x       y       z     vdW  Elec       q    Type
REMARK                         _______ _______ _______ _____ _____    ______ ____
ROOT
ATOM      1  C   UNL     1      -8.336  16.939  27.986  1.00  0.00    +0.000 A 
ATOM      2  C   UNL     1      -7.060  16.522  27.912  1.00  0.00    +0.000 A 
ATOM      3  C   UNL     1      -6.055  17.267  27.150  1.00  0.00    +0.000 A 
ATOM      4  C   UNL     1      -4.743  16.826  26.928  1.00  0.00    +0.000 A 
ATOM      5  C   UNL     1      -3.839  17.610  26.202  1.00  0.00    +0.000 A 
ATOM      6  C   UNL     1      -4.236  18.840  25.680  1.00  0.00    +0.000 A 
ATOM      7  C   UNL     1      -5.542  19.280  25.868  1.00  0.00    +0.000 A 
ATOM      8  C   UNL     1      -6.432  18.485  26.592  1.00  0.00    +0.000 A 
ATOM      9  O   UNL     1      -7.749  18.955  26.706  1.00  0.00    +0.000 OA
ATOM     10  C   UNL     1      -8.741  18.198  27.307  1.00  0.00    +0.000 A 
ATOM     11  O   UNL     1      -9.908  18.581  27.300  1.00  0.00    +0.000 OA
ENDROOT
BRANCH   2  12
ATOM     12  O   UNL     1      -6.642  15.386  28.576  1.00  0.00    +0.000 OA
ATOM     13  H   UNL     1      -7.295  15.181  29.266  1.00  0.00    +0.000 HD
ENDBRANCH   2  12
BRANCH   1  14
ATOM     14  C   UNL     1      -9.450  16.216  28.741  1.00  0.00    +0.000 C 
BRANCH  14  15
ATOM     15  C   UNL     1      -9.099  16.022  30.218  1.00  0.00    +0.000 A 
ATOM     16  C   UNL     1      -9.135  14.724  30.759  1.00  0.00    +0.000 A 
ATOM     17  C   UNL     1      -8.832  14.499  32.103  1.00  0.00    +0.000 A 
ATOM     18  C   UNL     1      -8.493  15.567  32.929  1.00  0.00    +0.000 A 
ATOM     19  C   UNL     1      -8.460  16.860  32.412  1.00  0.00    +0.000 A 
ATOM     20  C   UNL     1      -8.764  17.087  31.067  1.00  0.00    +0.000 A 
ENDBRANCH  14  15
BRANCH  14  21
ATOM     21  C   UNL     1      -9.933  14.938  28.027  1.00  0.00    +0.000 C 
BRANCH  21  23
ATOM     22  C   UNL     1     -12.506  15.057  27.822  1.00  0.00    +0.000 C 
ATOM     23  C   UNL     1     -11.154  15.213  27.173  1.00  0.00    +0.000 C 
ATOM     24  O   UNL     1     -11.048  15.582  26.003  1.00  0.00    +0.000 OA
ENDBRANCH  21  23
ENDBRANCH  14  21
ENDBRANCH   1  14
TORSDOF 5
ENDMDL
MODEL 6
REMARK VINA RESULT:    -7.755      2.834      3.260
REMARK INTER + INTRA:         -10.628
REMARK INTER:                  -9.989
REMARK INTRA:                  -0.639
REMARK UNBOUND:                -0.834
REMARK  Name = 
REMARK  6 active torsions:
REMARK  status: ('A' for Active; 'I' for Inactive)
REMARK    1  A    between atoms: C_1  and  C_2
REMARK    2  A    between atoms: C_2  and  C_4
REMARK    3  A    between atoms: C_4  and  C_5
REMARK    4  A    between atoms: C_5  and  C_6
REMARK    5  A    between atoms: C_5  and  C_12
REMARK    6  A    between atoms: C_13  and  O_14
REMARK                            x       y       z     vdW  Elec       q    Type
REMARK                         _______ _______ _______ _____ _____    ______ ____
ROOT
ATOM      1  C   UNL     1      -8.712  15.792  29.013  1.00  0.00    +0.000 A 
ATOM      2  C   UNL     1      -8.587  17.105  28.750  1.00  0.00    +0.000 A 
ATOM      3  C   UNL     1      -7.549  17.609  27.848  1.00  0.00    +0.000 A 
ATOM      4  C   UNL     1      -7.283  18.967  27.629  1.00  0.00    +0.000 A 
ATOM      5  C   UNL     1      -6.283  19.364  26.734  1.00  0.00    +0.000 A 
ATOM      6  C   UNL     1      -5.528  18.409  26.055  1.00  0.00    +0.000 A 
ATOM      7  C   UNL     1      -5.761  17.056  26.281  1.00  0.00    +0.000 A 
ATOM      8  C   UNL     1      -6.761  16.678  27.179  1.00  0.00    +0.000 A 
ATOM      9  O   UNL     1      -6.916  15.302  27.406  1.00  0.00    +0.000 OA
ATOM     10  C   UNL     1      -7.801  14.818  28.356  1.00  0.00    +0.000 A 
ATOM     11  O   UNL     1      -7.843  13.618  28.614  1.00  0.00    +0.000 OA
ENDROOT
BRANCH   2  12
ATOM     12  O   UNL     1      -9.453  18.027  29.303  1.00  0.00    +0.000 OA
ATOM     13  H   UNL     1      -9.386  17.963  30.271  1.00  0.00    +0.000 HD
ENDBRANCH   2  12
BRANCH   1  14
ATOM     14  C   UNL     1      -9.751  15.183  29.952  1.00  0.00    +0.000 C 
BRANCH  14  15
ATOM     15  C   UNL     1     -11.063  14.878  29.225  1.00  0.00    +0.000 A 
ATOM     16  C   UNL     1     -12.077  15.854  29.216  1.00  0.00    +0.000 A 
ATOM     17  C   UNL     1     -13.293  15.618  28.574  1.00  0.00    +0.000 A 
ATOM     18  C   UNL     1     -13.518  14.403  27.932  1.00  0.00    +0.000 A 
ATOM     19  C   UNL     1     -12.529  13.422  27.938  1.00  0.00    +0.000 A 
ATOM     20  C   UNL     1     -11.311  13.657  28.581  1.00  0.00    +0.000 A 
ENDBRANCH  14  15
BRANCH  14  21
ATOM     21  C   UNL     1      -9.919  15.976  31.263  1.00  0.00    +0.000 C 
BRANCH  21  23
ATOM     22  C   UNL     1      -8.530  14.145  32.445  1.00  0.00    +0.000 C 
ATOM     23  C   UNL     1      -8.847  15.608  32.269  1.00  0.00    +0.000 C 
ATOM     24  O   UNL     1      -8.233  16.472  32.896  1.00  0.00    +0.000 OA
ENDBRANCH  21  23
ENDBRANCH  14  21
ENDBRANCH   1  14
TORSDOF 5
ENDMDL
MODEL 7
REMARK VINA RESULT:    -7.577      2.862      7.005
REMARK INTER + INTRA:         -10.403
REMARK INTER:                  -9.490
REMARK INTRA:                  -0.914
REMARK UNBOUND:                -0.834
REMARK  Name = 
REMARK  6 active torsions:
REMARK  status: ('A' for Active; 'I' for Inactive)
REMARK    1  A    between atoms: C_1  and  C_2
REMARK    2  A    between atoms: C_2  and  C_4
REMARK    3  A    between atoms: C_4  and  C_5
REMARK    4  A    between atoms: C_5  and  C_6
REMARK    5  A    between atoms: C_5  and  C_12
REMARK    6  A    between atoms: C_13  and  O_14
REMARK                            x       y       z     vdW  Elec       q    Type
REMARK                         _______ _______ _______ _____ _____    ______ ____
ROOT
ATOM      1  C   UNL     1      -8.161  15.946  27.992  1.00  0.00    +0.000 A 
ATOM      2  C   UNL     1      -8.314  16.794  29.023  1.00  0.00    +0.000 A 
ATOM      3  C   UNL     1      -8.503  16.307  30.392  1.00  0.00    +0.000 A 
ATOM      4  C   UNL     1      -8.793  17.128  31.490  1.00  0.00    +0.000 A 
ATOM      5  C   UNL     1      -8.941  16.582  32.771  1.00  0.00    +0.000 A 
ATOM      6  C   UNL     1      -8.813  15.208  32.968  1.00  0.00    +0.000 A 
ATOM      7  C   UNL     1      -8.552  14.376  31.884  1.00  0.00    +0.000 A 
ATOM      8  C   UNL     1      -8.410  14.937  30.614  1.00  0.00    +0.000 A 
ATOM      9  O   UNL     1      -8.199  14.045  29.551  1.00  0.00    +0.000 OA
ATOM     10  C   UNL     1      -8.153  14.480  28.236  1.00  0.00    +0.000 A 
ATOM     11  O   UNL     1      -8.075  13.671  27.315  1.00  0.00    +0.000 OA
ENDROOT
BRANCH   2  12
ATOM     12  O   UNL     1      -8.271  18.161  28.834  1.00  0.00    +0.000 OA
ATOM     13  H   UNL     1      -8.581  18.352  27.934  1.00  0.00    +0.000 HD
ENDBRANCH   2  12
BRANCH   1  14
ATOM     14  C   UNL     1      -7.976  16.366  26.535  1.00  0.00    +0.000 C 
BRANCH  14  15
ATOM     15  C   UNL     1      -6.674  17.143  26.330  1.00  0.00    +0.000 A 
ATOM     16  C   UNL     1      -6.719  18.378  25.657  1.00  0.00    +0.000 A 
ATOM     17  C   UNL     1      -5.556  19.118  25.438  1.00  0.00    +0.000 A 
ATOM     18  C   UNL     1      -4.329  18.637  25.886  1.00  0.00    +0.000 A 
ATOM     19  C   UNL     1      -4.264  17.413  26.547  1.00  0.00    +0.000 A 
ATOM     20  C   UNL     1      -5.427  16.669  26.766  1.00  0.00    +0.000 A 
ENDBRANCH  14  15
BRANCH  14  21
ATOM     21  C   UNL     1      -9.224  17.045  25.939  1.00  0.00    +0.000 C 
BRANCH  21  23
ATOM     22  C   UNL     1      -9.047  15.072  24.279  1.00  0.00    +0.000 C 
ATOM     23  C   UNL     1      -9.882  16.167  24.893  1.00  0.00    +0.000 C 
ATOM     24  O   UNL     1     -11.062  16.319  24.578  1.00  0.00    +0.000 OA
ENDBRANCH  21  23
ENDBRANCH  14  21
ENDBRANCH   1  14
TORSDOF 5
ENDMDL
MODEL 8
REMARK VINA RESULT:    -7.539      2.099      4.480
REMARK INTER + INTRA:         -10.356
REMARK INTER:                 -10.134
REMARK INTRA:                  -0.221
REMARK UNBOUND:                -0.834
REMARK  Name = 
REMARK  6 active torsions:
REMARK  status: ('A' for Active; 'I' for Inactive)
REMARK    1  A    between atoms: C_1  and  C_2
REMARK    2  A    between atoms: C_2  and  C_4
REMARK    3  A    between atoms: C_4  and  C_5
REMARK    4  A    between atoms: C_5  and  C_6
REMARK    5  A    between atoms: C_5  and  C_12
REMARK    6  A    between atoms: C_13  and  O_14
REMARK                            x       y       z     vdW  Elec       q    Type
REMARK                         _______ _______ _______ _____ _____    ______ ____
ROOT
ATOM      1  C   UNL     1     -10.776  15.907  29.114  1.00  0.00    +0.000 A 
ATOM      2  C   UNL     1     -10.151  15.039  28.300  1.00  0.00    +0.000 A 
ATOM      3  C   UNL     1      -9.532  15.475  27.047  1.00  0.00    +0.000 A 
ATOM      4  C   UNL     1      -8.977  14.608  26.095  1.00  0.00    +0.000 A 
ATOM      5  C   UNL     1      -8.387  15.111  24.929  1.00  0.00    +0.000 A 
ATOM      6  C   UNL     1      -8.355  16.485  24.694  1.00  0.00    +0.000 A 
ATOM      7  C   UNL     1      -8.925  17.357  25.615  1.00  0.00    +0.000 A 
ATOM      8  C   UNL     1      -9.511  16.839  26.771  1.00  0.00    +0.000 A 
ATOM      9  O   UNL     1     -10.116  17.761  27.639  1.00  0.00    +0.000 OA
ATOM     10  C   UNL     1     -10.822  17.350  28.759  1.00  0.00    +0.000 A 
ATOM     11  O   UNL     1     -11.433  18.165  29.444  1.00  0.00    +0.000 OA
ENDROOT
BRANCH   2  12
ATOM     12  O   UNL     1     -10.046  13.702  28.631  1.00  0.00    +0.000 OA
ATOM     13  H   UNL     1     -10.672  13.204  28.080  1.00  0.00    +0.000 HD
ENDBRANCH   2  12
BRANCH   1  14
ATOM     14  C   UNL     1     -11.462  15.536  30.428  1.00  0.00    +0.000 C 
BRANCH  14  15
ATOM     15  C   UNL     1     -10.548  15.775  31.632  1.00  0.00    +0.000 A 
ATOM     16  C   UNL     1     -11.053  15.544  32.924  1.00  0.00    +0.000 A 
ATOM     17  C   UNL     1     -10.260  15.757  34.052  1.00  0.00    +0.000 A 
ATOM     18  C   UNL     1      -8.950  16.207  33.908  1.00  0.00    +0.000 A 
ATOM     19  C   UNL     1      -8.436  16.449  32.637  1.00  0.00    +0.000 A 
ATOM     20  C   UNL     1      -9.229  16.237  31.506  1.00  0.00    +0.000 A 
ENDBRANCH  14  15
BRANCH  14  21
ATOM     21  C   UNL     1     -12.120  14.143  30.394  1.00  0.00    +0.000 C 
BRANCH  21  23
ATOM     22  C   UNL     1     -13.922  14.011  28.547  1.00  0.00    +0.000 C 
ATOM     23  C   UNL     1     -13.580  14.234  29.998  1.00  0.00    +0.000 C 
ATOM     24  O   UNL     1     -14.458  14.449  30.833  1.00  0.00    +0.000 OA
ENDBRANCH  21  23
ENDBRANCH  14  21
ENDBRANCH   1  14
TORSDOF 5
ENDMDL
MODEL 9
REMARK VINA RESULT:    -7.500      2.315      6.190
REMARK INTER + INTRA:         -10.306
REMARK INTER:                  -9.933
REMARK INTRA:                  -0.373
REMARK UNBOUND:                -0.834
REMARK  Name = 
REMARK  6 active torsions:
REMARK  status: ('A' for Active; 'I' for Inactive)
REMARK    1  A    between atoms: C_1  and  C_2
REMARK    2  A    between atoms: C_2  and  C_4
REMARK    3  A    between atoms: C_4  and  C_5
REMARK    4  A    between atoms: C_5  and  C_6
REMARK    5  A    between atoms: C_5  and  C_12
REMARK    6  A    between atoms: C_13  and  O_14
REMARK                            x       y       z     vdW  Elec       q    Type
REMARK                         _______ _______ _______ _____ _____    ______ ____
ROOT
ATOM      1  C   UNL     1      -9.511  15.061  26.764  1.00  0.00    +0.000 A 
ATOM      2  C   UNL     1     -10.815  15.380  26.833  1.00  0.00    +0.000 A 
ATOM      3  C   UNL     1     -11.688  14.813  27.864  1.00  0.00    +0.000 A 
ATOM      4  C   UNL     1     -13.075  15.003  27.917  1.00  0.00    +0.000 A 
ATOM      5  C   UNL     1     -13.834  14.439  28.950  1.00  0.00    +0.000 A 
ATOM      6  C   UNL     1     -13.218  13.668  29.935  1.00  0.00    +0.000 A 
ATOM      7  C   UNL     1     -11.845  13.448  29.881  1.00  0.00    +0.000 A 
ATOM      8  C   UNL     1     -11.104  14.016  28.843  1.00  0.00    +0.000 A 
ATOM      9  O   UNL     1      -9.733  13.718  28.811  1.00  0.00    +0.000 OA
ATOM     10  C   UNL     1      -8.923  14.136  27.768  1.00  0.00    +0.000 A 
ATOM     11  O   UNL     1      -7.752  13.773  27.704  1.00  0.00    +0.000 OA
ENDROOT
BRANCH   2  12
ATOM     12  O   UNL     1     -11.377  16.279  25.947  1.00  0.00    +0.000 OA
ATOM     13  H   UNL     1     -10.681  16.890  25.654  1.00  0.00    +0.000 HD
ENDBRANCH   2  12
BRANCH   1  14
ATOM     14  C   UNL     1      -8.536  15.591  25.714  1.00  0.00    +0.000 C 
BRANCH  14  15
ATOM     15  C   UNL     1      -7.744  16.794  26.232  1.00  0.00    +0.000 A 
ATOM     16  C   UNL     1      -6.343  16.703  26.307  1.00  0.00    +0.000 A 
ATOM     17  C   UNL     1      -5.579  17.771  26.781  1.00  0.00    +0.000 A 
ATOM     18  C   UNL     1      -6.203  18.946  27.190  1.00  0.00    +0.000 A 
ATOM     19  C   UNL     1      -7.590  19.051  27.130  1.00  0.00    +0.000 A 
ATOM     20  C   UNL     1      -8.357  17.982  26.657  1.00  0.00    +0.000 A 
ENDBRANCH  14  15
BRANCH  14  21
ATOM     21  C   UNL     1      -9.189  15.804  24.335  1.00  0.00    +0.000 C 
BRANCH  21  23
ATOM     22  C   UNL     1      -7.647  14.348  22.859  1.00  0.00    +0.000 C 
ATOM     23  C   UNL     1      -8.165  15.717  23.221  1.00  0.00    +0.000 C 
ATOM     24  O   UNL     1      -7.793  16.720  22.612  1.00  0.00    +0.000 OA
ENDBRANCH  21  23
ENDBRANCH  14  21
ENDBRANCH   1  14
TORSDOF 5
ENDMDL
